 Gaussian 09, Revision D.01,
 Gaussian 09:  ES64L-G09RevD.01 24-Apr-2013

 ----------------------------------------------------------------------
 # opt freq b3lyp/6-31+g(d,p) scrf=(cpcm,solvent=toluene) geom=connecti
 vity empiricaldispersion=gd3
 ----------------------------------------------------------------------

 -------------------
 Title Card Required
 -------------------
 Symbolic Z-matrix:
 Charge =  0 Multiplicity = 1

 SCF Done:  E(RB3LYP) =  -1268.99792940     A.U. after   15 cycles
 SCF Done:  E(RB3LYP) =  -1269.00129325     A.U. after   13 cycles
 SCF Done:  E(RB3LYP) =  -1268.99038892     A.U. after   14 cycles
 SCF Done:  E(RB3LYP) =  -1269.00398828     A.U. after   12 cycles
 SCF Done:  E(RB3LYP) =  -1269.00326071     A.U. after   15 cycles
 SCF Done:  E(RB3LYP) =  -1269.00484963     A.U. after   11 cycles
 SCF Done:  E(RB3LYP) =  -1269.00560983     A.U. after   13 cycles
 SCF Done:  E(RB3LYP) =  -1269.00518983     A.U. after   13 cycles
 SCF Done:  E(RB3LYP) =  -1269.00597731     A.U. after   11 cycles
 SCF Done:  E(RB3LYP) =  -1269.00622632     A.U. after   12 cycles
 SCF Done:  E(RB3LYP) =  -1269.00711965     A.U. after   10 cycles
 SCF Done:  E(RB3LYP) =  -1269.00712085     A.U. after   10 cycles
 SCF Done:  E(RB3LYP) =  -1269.00712155     A.U. after    9 cycles
 SCF Done:  E(RB3LYP) =  -1269.00712242     A.U. after   10 cycles
 SCF Done:  E(RB3LYP) =  -1269.00712370     A.U. after   10 cycles
 SCF Done:  E(RB3LYP) =  -1269.00712550     A.U. after   10 cycles
 SCF Done:  E(RB3LYP) =  -1269.00712819     A.U. after   10 cycles
 SCF Done:  E(RB3LYP) =  -1269.00713011     A.U. after   10 cycles
 SCF Done:  E(RB3LYP) =  -1269.00713037     A.U. after   10 cycles
 Optimization completed.
    -- Stationary point found.
 Normal termination of Gaussian 09 at Thu Aug 27 21:23:08 2020.

 ----------------------------------------------------------------------
 #N Geom=AllCheck Guess=TCheck SCRF=Check GenChk RB3LYP/6-31+G(d,p) Fre
 q
 ----------------------------------------------------------------------

 Structure from the checkpoint file:  "b3lyp_sm_2H2O_claisen_PM6_toluene.chk"
 -------------------
 Title Card Required
 -------------------
 Charge =  0 Multiplicity = 1

                         Standard orientation:
 ---------------------------------------------------------------------
 Center     Atomic      Atomic             Coordinates (Angstroms)
 Number     Number       Type             X           Y           Z
 ---------------------------------------------------------------------
      1          6           0       -2.722653    2.471945    0.696560
      2          6           0       -2.993397    1.232165    0.157204
      3          6           0       -1.946684    0.318102   -0.142841
      4          6           0       -0.589232    0.722129    0.102674
      5          6           0       -0.348000    1.998821    0.681071
      6          6           0       -1.389503    2.855467    0.972260
      7          1           0       -3.538646    3.151687    0.921763
      8          1           0       -4.017962    0.936513   -0.034934
      9          1           0        0.671114    2.285120    0.911422
     10          1           0       -1.185009    3.823589    1.418838
     11          6           0        0.487771   -0.179011   -0.201313
     12          6           0       -2.168898   -0.996845   -0.651316
     13          6           0        0.215020   -1.448587   -0.669037
     14          1           0        1.006265   -2.160907   -0.845423
     15          6           0       -1.121530   -1.853807   -0.893069
     16          1           0       -1.315044   -2.854756   -1.262268
     17          8           0        1.727373    0.345995    0.038243
     18         17           0       -3.810217   -1.560728   -0.968835
     19          6           0        3.003842   -0.343868   -0.186017
     20          6           0        3.144965   -1.587979    0.667552
     21          1           0        3.958777   -2.240656    0.353329
     22          6           0        3.209437   -0.627972   -1.683035
     23          1           0        4.230550   -0.988241   -1.839266
     24          1           0        2.524948   -1.382058   -2.072593
     25          1           0        3.077500    0.292394   -2.257636
     26          6           0        4.030127    0.698697    0.288418
     27          1           0        3.830356    0.968317    1.328426
     28          1           0        5.038863    0.281768    0.223144
     29          1           0        3.983177    1.597018   -0.334553
     30          6           0        2.430401   -1.890197    1.752897
     31          1           0        2.643496   -2.789916    2.322546
     32          1           0        1.604141   -1.276645    2.100410
     33          8           0       -0.874350   -1.095646    2.828315
     34          1           0       -1.054158   -1.550299    1.993558
     35          1           0       -0.978916   -0.158078    2.617497
     36          8           0        1.898336    2.664820   -1.798483
     37          1           0        1.037726    3.101820   -1.832646
     38          1           0        1.795651    1.959999   -1.138076
 ---------------------------------------------------------------------

 SCF Done:  E(RB3LYP) =  -1269.00713037     A.U. after    2 cycles

 The electronic state is 1-A.
 Alpha  occ. eigenvalues -- -101.56409 -19.20599 -19.16537 -19.15851 -10.27877
 Alpha  occ. eigenvalues --  -10.27768 -10.26443 -10.23192 -10.22727 -10.22095
 Alpha  occ. eigenvalues --  -10.21308 -10.21279 -10.21234 -10.21209 -10.21142
 Alpha  occ. eigenvalues --  -10.20550 -10.19255 -10.19180 -10.19064  -9.47876
 Alpha  occ. eigenvalues --   -7.24280  -7.23316  -7.23293  -1.08541  -1.01771
 Alpha  occ. eigenvalues --   -1.01141  -0.91185  -0.87007  -0.84500  -0.82500
 Alpha  occ. eigenvalues --   -0.77798  -0.76802  -0.75905  -0.73015  -0.70491
 Alpha  occ. eigenvalues --   -0.65497  -0.64591  -0.62955  -0.61086  -0.57200
 Alpha  occ. eigenvalues --   -0.54216  -0.53433  -0.53292  -0.52934  -0.51185
 Alpha  occ. eigenvalues --   -0.49334  -0.48857  -0.47830  -0.45408  -0.45069
 Alpha  occ. eigenvalues --   -0.44640  -0.44379  -0.43486  -0.43088  -0.41486
 Alpha  occ. eigenvalues --   -0.40987  -0.40346  -0.40023  -0.39344  -0.39085
 Alpha  occ. eigenvalues --   -0.38415  -0.37994  -0.36899  -0.36597  -0.36146
 Alpha  occ. eigenvalues --   -0.35481  -0.33597  -0.32530  -0.31827  -0.31726
 Alpha  occ. eigenvalues --   -0.31476  -0.28431  -0.27674  -0.26850  -0.22506
 Alpha virt. eigenvalues --   -0.06535  -0.04093  -0.01494  -0.00619   0.00128
 Alpha virt. eigenvalues --    0.00611   0.00849   0.01134   0.01784   0.02071
 Alpha virt. eigenvalues --    0.02839   0.03332   0.03723   0.04511   0.05287

 Mulliken charges:
               1
     1  C   -0.489655
     2  C   -0.530973
     3  C    0.673251
     4  C   -0.010311
     5  C   -0.159795
     6  C   -0.375298
     7  H    0.145104
     8  H    0.155110
     9  H    0.165934
    10  H    0.144841
    11  C    0.170108
    12  C   -0.177455
    13  C    0.031305
    14  H    0.143892
    15  C   -0.426641
    16  H    0.160514
    17  O   -0.415184
    18  Cl   0.253775
    19  C    0.155550
    20  C   -0.159797
    21  H    0.139538
    22  C   -0.430557
    23  H    0.162293
    24  H    0.152182
    25  H    0.173187
    26  C   -0.400774
    27  H    0.170564
    28  H    0.161449
    29  H    0.168898
    30  C   -0.243773
    31  H    0.139765
    32  H    0.166680
    33  O   -0.654784
    34  H    0.376606
    35  H    0.394000
    36  O   -0.721108
    37  H    0.376492
    38  H    0.415066
 Sum of Mulliken charges =   0.00000

 Dipole moment (field-independent basis, Debye):
    X=              1.2228    Y=              0.0255    Z=             -0.6584  Tot=              1.3890
 Quadrupole moment (field-independent basis, Debye-Ang):
   XX=           -118.5439   YY=           -116.1083   ZZ=           -137.7110
   XY=            -16.4174   XZ=              2.0284   YZ=             12.1008

  Exact polarizability: 299.521  -7.763 268.214  -2.840  29.319 189.079
 Approx polarizability: 375.928  -9.247 363.372  -6.710  52.818 242.724

                      1                      2                      3
                      A                      A                      A
 Frequencies --     36.4657                37.7161                41.7240
 Red. masses --      7.0612                 8.0210                 4.8899
 Frc consts  --      0.0055                 0.0067                 0.0050
 IR Inten    --      4.0478                 1.6321                 0.8600

                      4                      5                      6
                      A                      A                      A
 Frequencies --     60.7647                63.6779                72.7561
 Red. masses --      4.1465                 6.1984                 4.9933
 Frc consts  --      0.0090                 0.0148                 0.0156
 IR Inten    --      1.1943                 7.9874                 9.7745

                      7                      8                      9
                      A                      A                      A
 Frequencies --    106.2483               117.1592               119.1773
 Red. masses --      2.8750                 4.2352                 3.8629
 Frc consts  --      0.0191                 0.0343                 0.0323
 IR Inten    --      4.3646                 0.1942                 4.1493

                     10                     11                     12
                      A                      A                      A
 Frequencies --    128.8855               137.2606               148.6783
 Red. masses --      3.7660                 3.9497                 1.5447
 Frc consts  --      0.0369                 0.0438                 0.0201
 IR Inten    --      4.5495                 6.3468                73.0245

                     13                     14                     15
                      A                      A                      A
 Frequencies --    155.9417               182.5403               194.4505
 Red. masses --      1.8707                 1.1037                 3.7212
 Frc consts  --      0.0268                 0.0217                 0.0829
 IR Inten    --     45.2184                18.6425                10.2787

                     16                     17                     18
                      A                      A                      A
 Frequencies --    200.6654               204.4827               214.8339
 Red. masses --      1.3902                 1.7963                 1.5353
 Frc consts  --      0.0330                 0.0443                 0.0417
 IR Inten    --     65.1997                35.5673                 7.9316

                     19                     20                     21
                      A                      A                      A
 Frequencies --    230.2287               256.4314               273.9496
 Red. masses --      4.7447                 1.1369                 1.7870
 Frc consts  --      0.1482                 0.0440                 0.0790
 IR Inten    --      1.4201               173.8050                20.2980

                     22                     23                     24
                      A                      A                      A
 Frequencies --    281.9819               316.9500               338.8547
 Red. masses --      1.5335                 2.4288                 2.4561
 Frc consts  --      0.0718                 0.1438                 0.1662
 IR Inten    --      1.9633                 2.8470                 5.7401

                     25                     26                     27
                      A                      A                      A
 Frequencies --    360.8285               365.0990               391.2185
 Red. masses --      2.8756                 1.5931                 1.9915
 Frc consts  --      0.2206                 0.1251                 0.1796
 IR Inten    --     15.0270                89.8395                27.5335

                     28                     29                     30
                      A                      A                      A
 Frequencies --    417.5777               426.3843               442.8296
 Red. masses --      4.7909                 2.8046                 2.8994
 Frc consts  --      0.4922                 0.3004                 0.3350
 IR Inten    --      3.6794                17.9987                 5.9065

                     31                     32                     33
                      A                      A                      A
 Frequencies --    472.5253               491.7897               496.8463
 Red. masses --      3.3020                 1.1730                 4.5594
 Frc consts  --      0.4344                 0.1672                 0.6631
 IR Inten    --      3.6474                78.9001                 5.8799

                     34                     35                     36
                      A                      A                      A
 Frequencies --    532.1354               556.3454               597.6288
 Red. masses --      5.8194                 4.3447                 3.7926
 Frc consts  --      0.9709                 0.7923                 0.7981
 IR Inten    --      7.7500                 2.5152                 1.7897

                     37                     38                     39
                      A                      A                      A
 Frequencies --    601.3146               642.6676               663.9095
 Red. masses --      3.8901                 3.5065                 4.8289
 Frc consts  --      0.8287                 0.8533                 1.2540
 IR Inten    --      5.2582                 7.0647                22.6470

                     40                     41                     42
                      A                      A                      A
 Frequencies --    692.6568               736.2640               766.4284
 Red. masses --      2.1272                 5.3113                 4.2955
 Frc consts  --      0.6013                 1.6964                 1.4866
 IR Inten    --     28.0742                 9.0700                24.1581

                     43                     44                     45
                      A                      A                      A
 Frequencies --    769.2249               781.2758               804.3930
 Red. masses --      4.5891                 1.3893                 5.0917
 Frc consts  --      1.5999                 0.4996                 1.9411
 IR Inten    --      9.1594                80.0478                 3.1745

                     46                     47                     48
                      A                      A                      A
 Frequencies --    836.6950               881.6232               883.2945
 Red. masses --      1.3595                 2.8030                 1.4369
 Frc consts  --      0.5607                 1.2836                 0.6605
 IR Inten    --     55.8257                86.3569                 2.0334

                     49                     50                     51
                      A                      A                      A
 Frequencies --    937.8255               944.7451               949.6789
 Red. masses --      1.4556                 1.4656                 2.2059
 Frc consts  --      0.7543                 0.7707                 1.1722
 IR Inten    --      2.3094                 5.8257                17.7509

                     52                     53                     54
                      A                      A                      A
 Frequencies --    962.4007               978.4678               985.6135
 Red. masses --      3.8095                 1.3803                 1.3368
 Frc consts  --      2.0789                 0.7786                 0.7651
 IR Inten    --     21.8131                30.5536                 2.2649

                     55                     56                     57
                      A                      A                      A
 Frequencies --   1008.4705              1028.6796              1040.2791
 Red. masses --      1.2769                 1.0984                 1.3030
 Frc consts  --      0.7651                 0.6848                 0.8308
 IR Inten    --      0.3426                30.3921                 0.6312

                     58                     59                     60
                      A                      A                      A
 Frequencies --   1056.0075              1061.7829              1095.0306
 Red. masses --      2.7541                 1.3357                 3.0069
 Frc consts  --      1.8095                 0.8872                 2.1243
 IR Inten    --     35.4978                25.6996               119.3233

                     61                     62                     63
                      A                      A                      A
 Frequencies --   1161.2563              1185.6138              1192.2811
 Red. masses --      2.2514                 2.1189                 1.7488
 Frc consts  --      1.7888                 1.7549                 1.4647
 IR Inten    --      1.5830               215.4804                20.5999

                     64                     65                     66
                      A                      A                      A
 Frequencies --   1198.4861              1205.0628              1230.6465
 Red. masses --      1.1975                 3.2179                 1.6673
 Frc consts  --      1.0134                 2.7532                 1.4878
 IR Inten    --      9.3968                24.6589                28.5768

                     67                     68                     69
                      A                      A                      A
 Frequencies --   1252.6259              1273.9146              1294.4380
 Red. masses --      2.5018                 2.2680                 1.9054
 Frc consts  --      2.3129                 2.1686                 1.8811
 IR Inten    --    123.6068                80.6891                63.8047

                     70                     71                     72
                      A                      A                      A
 Frequencies --   1333.2980              1360.6056              1398.5749
 Red. masses --      1.2943                 4.8369                 7.3908
 Frc consts  --      1.3556                 5.2757                 8.5175
 IR Inten    --      4.3414                32.7169                57.8821

                     73                     74                     75
                      A                      A                      A
 Frequencies --   1409.1586              1412.0992              1433.5831
 Red. masses --      1.9722                 1.2330                 1.2095
 Frc consts  --      2.3073                 1.4486                 1.4645
 IR Inten    --    107.6825                11.6932                31.6917

                     76                     77                     78
                      A                      A                      A
 Frequencies --   1457.7871              1464.9833              1483.0975
 Red. masses --      1.1944                 2.3194                 1.0469
 Frc consts  --      1.4955                 2.9328                 1.3568
 IR Inten    --      8.7651                33.2748                 1.4088

                     79                     80                     81
                      A                      A                      A
 Frequencies --   1485.8380              1489.9743              1502.8055
 Red. masses --      2.0486                 1.1285                 1.0731
 Frc consts  --      2.6647                 1.4760                 1.4279
 IR Inten    --     49.0891                 6.7354                 9.2188

                     82                     83                     84
                      A                      A                      A
 Frequencies --   1514.3236              1546.7194              1612.1211
 Red. masses --      1.0611                 3.3330                 6.6715
 Frc consts  --      1.4337                 4.6980                10.2157
 IR Inten    --      6.9649                18.2269                15.6246

                     85                     86                     87
                      A                      A                      A
 Frequencies --   1624.7000              1633.1836              1647.7003
 Red. masses --      1.0833                 5.3337                 1.1000
 Frc consts  --      1.6848                 8.3820                 1.7596
 IR Inten    --    167.2924                80.4296               154.0654

                     88                     89                     90
                      A                      A                      A
 Frequencies --   1663.4748              1710.7969              3050.8390
 Red. masses --      5.8411                 4.5078                 1.0344
 Frc consts  --      9.5231                 7.7734                 5.6727
 IR Inten    --      4.7230                 4.5278                18.0678

                     91                     92                     93
                      A                      A                      A
 Frequencies --   3063.2498              3129.7138              3136.0271
 Red. masses --      1.0372                 1.1032                 1.1017
 Frc consts  --      5.7345                 6.3666                 6.3840
 IR Inten    --     18.8346                 5.3793                29.1677

                     94                     95                     96
                      A                      A                      A
 Frequencies --   3140.2643              3150.6428              3156.1864
 Red. masses --      1.1037                 1.0700                 1.1020
 Frc consts  --      6.4124                 6.2580                 6.4678
 IR Inten    --     18.1048                11.3533                19.4290

                     97                     98                     99
                      A                      A                      A
 Frequencies --   3162.1233              3191.6204              3205.3091
 Red. masses --      1.0811                 1.0875                 1.0920
 Frc consts  --      6.3690                 6.5268                 6.6100
 IR Inten    --     18.8711                 6.0327                15.3226

                    100                    101                    102
                      A                      A                      A
 Frequencies --   3215.9641              3225.7019              3229.6155
 Red. masses --      1.0918                 1.0930                 1.0937
 Frc consts  --      6.6529                 6.7007                 6.7215
 IR Inten    --      3.3636                 5.6869                 6.6504

                    103                    104                    105
                      A                      A                      A
 Frequencies --   3245.7216              3268.7139              3722.4050
 Red. masses --      1.1166                 1.0916                 1.0524
 Frc consts  --      6.9305                 6.8719                 8.5919
 IR Inten    --     10.0137                 3.7673               286.8830

                    106                    107                    108
                      A                      A                      A
 Frequencies --   3793.7424              3879.1709              3896.6996
 Red. masses --      1.0452                 1.0754                 1.0816
 Frc consts  --      8.8633                 9.5348                 9.6761
 IR Inten    --     41.1579               108.4773                39.9401

 - Thermochemistry -
 -------------------
 Temperature   298.150 Kelvin.  Pressure   1.00000 Atm.
 Atom     1 has atomic number  6 and mass  12.00000

 Molecular mass:   282.10227 amu.
 Principal axes and moments of inertia in atomic units:
                           1         2         3
     Eigenvalues --  3888.889817576.696568749.98174
           X            0.99957  -0.02578  -0.01409
           Y            0.02571   0.99965  -0.00545
           Z            0.01422   0.00509   0.99989
 This molecule is an asymmetric top.
 Rotational symmetry number  1.
 Warning -- assumption of classical behavior for rotation
           may cause significant error
 Rotational temperatures (Kelvin)      0.02227     0.01143     0.00990
 Rotational constants (GHZ):           0.46408     0.23820     0.20626
 Zero-point vibrational energy     805234.1 (Joules/Mol)
                                  192.45556 (Kcal/Mol)
 Warning -- explicit consideration of  37 degrees of freedom as
           vibrations may cause significant error
 Vibrational temperatures:     52.47    54.26    60.03    87.43    91.62
          (Kelvin)            104.68   152.87   168.57   171.47   185.44
                              197.49   213.91   224.37   262.63   279.77
                              288.71   294.20   309.10   331.25   368.95
                              394.15   405.71   456.02   487.54   519.15
                              525.30   562.88   600.80   613.47   637.13
                              679.86   707.57   714.85   765.62   800.46
                              859.85   865.16   924.65   955.22   996.58
                             1059.32  1102.72  1106.74  1124.08  1157.34
                             1203.82  1268.46  1270.86  1349.32  1359.28
                             1366.37  1384.68  1407.80  1418.08  1450.96
                             1480.04  1496.73  1519.36  1527.67  1575.50
                             1670.79  1705.83  1715.42  1724.35  1733.81
                             1770.62  1802.25  1832.88  1862.41  1918.32
                             1957.61  2012.23  2027.46  2031.69  2062.60
                             2097.43  2107.78  2133.84  2137.79  2143.74
                             2162.20  2178.77  2225.38  2319.48  2337.58
                             2349.78  2370.67  2393.37  2461.45  4389.47
                             4407.33  4502.95  4512.04  4518.13  4533.07
                             4541.04  4549.58  4592.02  4611.72  4627.05
                             4641.06  4646.69  4669.86  4702.94  5355.70
                             5458.34  5581.25  5606.47

 Zero-point correction=                           0.306697 (Hartree/Particle)
 Thermal correction to Energy=                    0.329692
 Thermal correction to Enthalpy=                  0.330636
 Thermal correction to Gibbs Free Energy=         0.254395
 Sum of electronic and zero-point Energies=          -1268.700433
 Sum of electronic and thermal Energies=             -1268.677439
 Sum of electronic and thermal Enthalpies=           -1268.676494
 Sum of electronic and thermal Free Energies=        -1268.752735

                     E (Thermal)             CV                S
                      KCal/Mol        Cal/Mol-Kelvin    Cal/Mol-Kelvin
 Total                  206.885             83.314            160.462
 Electronic               0.000              0.000              0.000
 Translational            0.889              2.981             42.809
 Rotational               0.889              2.981             33.910
 Vibrational            205.107             77.352             83.743
 Vibration     1          0.594              1.982              5.442
 Vibration     2          0.594              1.982              5.376
 Vibration     3          0.594              1.981              5.176
 Vibration     4          0.597              1.973              4.432
 Vibration     5          0.597              1.972              4.340
 Vibration     6          0.599              1.967              4.077
 Vibration     7          0.605              1.944              3.336
 Vibration     8          0.608              1.935              3.147
 Vibration     9          0.609              1.933              3.114
 Vibration    10          0.611              1.924              2.963
 Vibration    11          0.614              1.916              2.842
 Vibration    12          0.618              1.904              2.689
 Vibration    13          0.620              1.896              2.598
 Vibration    14          0.630              1.864              2.302
 Vibration    15          0.635              1.848              2.185
 Vibration    16          0.638              1.839              2.127
 Vibration    17          0.640              1.834              2.092
 Vibration    18          0.645              1.818              2.002
 Vibration    19          0.652              1.795              1.877
 Vibration    20          0.666              1.752              1.686
 Vibration    21          0.676              1.721              1.571
 Vibration    22          0.681              1.707              1.522
 Vibration    23          0.704              1.641              1.326
 Vibration    24          0.719              1.598              1.218
 Vibration    25          0.735              1.553              1.119
 Vibration    26          0.738              1.544              1.100
 Vibration    27          0.759              1.489              0.995
 Vibration    28          0.781              1.432              0.900
 Vibration    29          0.788              1.413              0.871
 Vibration    30          0.802              1.377              0.818
 Vibration    31          0.829              1.311              0.731
 Vibration    32          0.848              1.268              0.679
 Vibration    33          0.852              1.257              0.666
 Vibration    34          0.887              1.179              0.582
 Vibration    35          0.912              1.126              0.531
 Vibration    36          0.956              1.037              0.454
 Vibration    37          0.960              1.029              0.447

 Normal termination of Gaussian 09 at Thu Aug 27 22:56:03 2020.
