 Gaussian 09, Revision D.01,
 Gaussian 09:  ES64L-G09RevD.01 24-Apr-2013

 ----------------------------------------------------------------------
 # opt=(calcfc,ts,noeigentest) b3lyp/6-31+g(d,p) scrf=(cpcm,solvent=tol
 uene) geom=connectivity empiricaldispersion=gd3
 ----------------------------------------------------------------------

 -------------------
 Title Card Required
 -------------------
 Symbolic Z-matrix:
 Charge =  0 Multiplicity = 1

 SCF Done:  E(RB3LYP) =  -1268.95349758     A.U. after   16 cycles

  Exact polarizability:   0.000   0.000   0.000   0.000   0.000   0.000
 Approx polarizability: 453.400  27.784 410.404  20.736 -17.733 243.488

 SCF Done:  E(RB3LYP) =  -1268.96593159     A.U. after   13 cycles
 SCF Done:  E(RB3LYP) =  -1268.97461416     A.U. after   13 cycles
 SCF Done:  E(RB3LYP) =  -1268.97991049     A.U. after   14 cycles
 SCF Done:  E(RB3LYP) =  -1268.98317176     A.U. after   14 cycles
 SCF Done:  E(RB3LYP) =  -1268.98524237     A.U. after   13 cycles
 SCF Done:  E(RB3LYP) =  -1268.98649811     A.U. after   14 cycles
 SCF Done:  E(RB3LYP) =  -1268.98714381     A.U. after   13 cycles
 SCF Done:  E(RB3LYP) =  -1268.98745287     A.U. after   13 cycles
 SCF Done:  E(RB3LYP) =  -1268.98760936     A.U. after   13 cycles
 SCF Done:  E(RB3LYP) =  -1268.98836073     A.U. after   13 cycles
 SCF Done:  E(RB3LYP) =  -1268.98837300     A.U. after   13 cycles
 SCF Done:  E(RB3LYP) =  -1268.98837263     A.U. after   11 cycles
 SCF Done:  E(RB3LYP) =  -1268.98837230     A.U. after   11 cycles
 SCF Done:  E(RB3LYP) =  -1268.98837268     A.U. after   10 cycles
 SCF Done:  E(RB3LYP) =  -1268.98837318     A.U. after   10 cycles
 SCF Done:  E(RB3LYP) =  -1268.98837350     A.U. after    9 cycles
 SCF Done:  E(RB3LYP) =  -1268.98837371     A.U. after    9 cycles
 SCF Done:  E(RB3LYP) =  -1268.98837378     A.U. after   10 cycles
 SCF Done:  E(RB3LYP) =  -1268.98837384     A.U. after    9 cycles
 Optimization completed.
    -- Stationary point found.

                         Standard orientation:
 ---------------------------------------------------------------------
 Center     Atomic      Atomic             Coordinates (Angstroms)
 Number     Number       Type             X           Y           Z
 ---------------------------------------------------------------------
      1          6           0        2.706260    2.748061   -0.330044
      2          6           0        3.092663    1.429471   -0.173612
      3          6           0        2.139478    0.421969    0.124461
      4          6           0        0.762998    0.796398    0.245982
      5          6           0        0.402269    2.153766    0.093692
      6          6           0        1.351670    3.117755   -0.191232
      7          1           0        3.453432    3.503441   -0.554465
      8          1           0        4.137285    1.158020   -0.271243
      9          1           0       -0.641795    2.423231    0.203694
     10          1           0        1.056629    4.156347   -0.305407
     11          6           0       -0.252235   -0.203832    0.564064
     12          6           0        2.482495   -0.959461    0.325428
     13          6           0        0.167251   -1.549908    0.707815
     14          1           0       -0.556789   -2.280693    1.047407
     15          6           0        1.538086   -1.904871    0.630412
     16          1           0        1.835236   -2.935139    0.794299
     17          8           0       -1.501399    0.115784    0.637734
     18         17           0        4.168150   -1.470244    0.199828
     19          6           0       -2.538101   -0.350531   -1.421519
     20          6           0       -2.056337   -1.671241   -1.369779
     21          1           0       -2.722093   -2.418179   -0.943909
     22          6           0       -3.948024   -0.064844   -1.018110
     23          1           0       -3.997269    0.859622   -0.434635
     24          1           0       -4.553283    0.092269   -1.922704
     25          1           0       -4.385337   -0.875108   -0.432396
     26          6           0       -1.830691    0.742522   -2.161299
     27          1           0       -0.744613    0.649454   -2.142102
     28          1           0       -2.152206    0.709326   -3.211931
     29          1           0       -2.105657    1.720124   -1.761488
     30          6           0       -0.750482   -2.030856   -1.606188
     31          1           0       -0.437108   -3.063821   -1.506940
     32          1           0       -0.026570   -1.355573   -2.045981
     33          8           0       -3.355913    1.877841    1.798376
     34          1           0       -2.557427    1.494465    1.390754
     35          1           0       -3.824052    1.090018    2.115438
     36          8           0       -3.449358   -1.201516    2.019563
     37          1           0       -3.119073   -1.469044    2.886181
     38          1           0       -2.668300   -0.847866    1.532557
 ---------------------------------------------------------------------

 The electronic state is 1-A.
 Alpha  occ. eigenvalues -- -101.56280 -19.15051 -19.14878 -19.13674 -10.26636
 Alpha  occ. eigenvalues --  -10.26490 -10.26304 -10.23719 -10.22661 -10.21558
 Alpha  occ. eigenvalues --  -10.21540 -10.21365 -10.21314 -10.20822 -10.20684
 Alpha  occ. eigenvalues --  -10.20583 -10.20517 -10.20256 -10.19432  -9.47751
 Alpha  occ. eigenvalues --   -7.24146  -7.23199  -7.23168  -1.02829  -0.99973
 Alpha  occ. eigenvalues --   -0.98885  -0.90379  -0.86264  -0.85260  -0.82372
 Alpha  occ. eigenvalues --   -0.77231  -0.76872  -0.76012  -0.71792  -0.71179
 Alpha  occ. eigenvalues --   -0.64909  -0.63949  -0.63518  -0.58693  -0.54916
 Alpha  occ. eigenvalues --   -0.53744  -0.52804  -0.52259  -0.50823  -0.49922
 Alpha  occ. eigenvalues --   -0.49802  -0.47789  -0.46984  -0.46747  -0.45047
 Alpha  occ. eigenvalues --   -0.43978  -0.43905  -0.42513  -0.42432  -0.41920
 Alpha  occ. eigenvalues --   -0.40712  -0.40357  -0.39705  -0.38763  -0.38440
 Alpha  occ. eigenvalues --   -0.38322  -0.37236  -0.36795  -0.36698  -0.36422
 Alpha  occ. eigenvalues --   -0.35398  -0.32377  -0.31443  -0.30908  -0.30572
 Alpha  occ. eigenvalues --   -0.29413  -0.27915  -0.27504  -0.25994  -0.21536
 Alpha virt. eigenvalues --   -0.10807  -0.05405  -0.03286  -0.00414  -0.00030
 Alpha virt. eigenvalues --    0.00528   0.01098   0.01408   0.01856   0.02058
 Alpha virt. eigenvalues --    0.02558   0.03232   0.03519   0.04291   0.04822

 Mulliken charges:
               1
     1  C   -0.477521
     2  C   -0.491615
     3  C    0.838872
     4  C    0.386419
     5  C   -0.274660
     6  C   -0.498242
     7  H    0.142099
     8  H    0.150512
     9  H    0.141524
    10  H    0.140422
    11  C   -0.083364
    12  C   -0.120681
    13  C    0.229405
    14  H    0.159223
    15  C   -0.582359
    16  H    0.150641
    17  O   -0.705248
    18  Cl   0.245359
    19  C    0.497247
    20  C    0.023596
    21  H    0.145483
    22  C   -0.542078
    23  H    0.195418
    24  H    0.173288
    25  H    0.179676
    26  C   -0.641683
    27  H    0.161276
    28  H    0.181621
    29  H    0.174679
    30  C   -0.332114
    31  H    0.173722
    32  H    0.173086
    33  O   -0.749442
    34  H    0.432861
    35  H    0.384207
    36  O   -0.819936
    37  H    0.373790
    38  H    0.464514
 Sum of Mulliken charges =   0.00000

 Dipole moment (field-independent basis, Debye):
    X=              1.1610    Y=             -2.7068    Z=             -4.3827  Tot=              5.2804
 Quadrupole moment (field-independent basis, Debye-Ang):
   XX=           -137.9196   YY=           -117.1600   ZZ=           -120.2691
   XY=             12.5118   XZ=             10.6359   YZ=             -8.6370

 Normal termination of Gaussian 09 at Thu Aug 27 23:22:27 2020.
