 Gaussian 09, Revision D.01,
 Gaussian 09:  ES64L-G09RevD.01 24-Apr-2013

 ----------------------------------------------------------------------
 # freq b3lyp/6-31+g(d,p) scrf=(cpcm,solvent=toluene) geom=connectivity
  empiricaldispersion=gd3
 ----------------------------------------------------------------------

 -------------------
 Title Card Required
 -------------------
 Symbolic Z-matrix:
 Charge =  0 Multiplicity = 1

                         Standard orientation:
 ---------------------------------------------------------------------
 Center     Atomic      Atomic             Coordinates (Angstroms)
 Number     Number       Type             X           Y           Z
 ---------------------------------------------------------------------
      1          6           0       -2.706260    2.748061    0.330044
      2          6           0       -3.092663    1.429471    0.173612
      3          6           0       -2.139478    0.421969   -0.124461
      4          6           0       -0.762998    0.796398   -0.245982
      5          6           0       -0.402269    2.153766   -0.093692
      6          6           0       -1.351670    3.117755    0.191232
      7          1           0       -3.453432    3.503441    0.554465
      8          1           0       -4.137285    1.158020    0.271243
      9          1           0        0.641795    2.423231   -0.203694
     10          1           0       -1.056629    4.156347    0.305407
     11          6           0        0.252235   -0.203832   -0.564064
     12          6           0       -2.482495   -0.959461   -0.325428
     13          6           0       -0.167251   -1.549908   -0.707815
     14          1           0        0.556789   -2.280693   -1.047407
     15          6           0       -1.538086   -1.904871   -0.630412
     16          1           0       -1.835236   -2.935139   -0.794299
     17          8           0        1.501399    0.115784   -0.637734
     18         17           0       -4.168150   -1.470244   -0.199828
     19          6           0        2.538101   -0.350531    1.421519
     20          6           0        2.056337   -1.671241    1.369779
     21          1           0        2.722093   -2.418179    0.943909
     22          6           0        3.948024   -0.064844    1.018110
     23          1           0        3.997269    0.859622    0.434635
     24          1           0        4.553283    0.092269    1.922704
     25          1           0        4.385337   -0.875108    0.432396
     26          6           0        1.830691    0.742522    2.161299
     27          1           0        0.744613    0.649454    2.142102
     28          1           0        2.152206    0.709326    3.211931
     29          1           0        2.105657    1.720124    1.761488
     30          6           0        0.750482   -2.030856    1.606188
     31          1           0        0.437108   -3.063821    1.506940
     32          1           0        0.026570   -1.355573    2.045981
     33          8           0        3.355913    1.877841   -1.798376
     34          1           0        2.557427    1.494465   -1.390754
     35          1           0        3.824052    1.090018   -2.115438
     36          8           0        3.449358   -1.201516   -2.019563
     37          1           0        3.119073   -1.469044   -2.886181
     38          1           0        2.668300   -0.847866   -1.532557
 ---------------------------------------------------------------------

 SCF Done:  E(RB3LYP) =  -1268.98837384     A.U. after   16 cycles

 The electronic state is 1-A.
 Alpha  occ. eigenvalues -- -101.56280 -19.15051 -19.14878 -19.13674 -10.26636
 Alpha  occ. eigenvalues --  -10.26490 -10.26304 -10.23719 -10.22661 -10.21558
 Alpha  occ. eigenvalues --  -10.21540 -10.21365 -10.21314 -10.20822 -10.20684
 Alpha  occ. eigenvalues --  -10.20583 -10.20517 -10.20256 -10.19432  -9.47751
 Alpha  occ. eigenvalues --   -7.24146  -7.23199  -7.23168  -1.02829  -0.99973
 Alpha  occ. eigenvalues --   -0.98885  -0.90379  -0.86264  -0.85260  -0.82372
 Alpha  occ. eigenvalues --   -0.77231  -0.76872  -0.76012  -0.71792  -0.71179
 Alpha  occ. eigenvalues --   -0.64909  -0.63949  -0.63518  -0.58693  -0.54916
 Alpha  occ. eigenvalues --   -0.53744  -0.52804  -0.52259  -0.50823  -0.49922
 Alpha  occ. eigenvalues --   -0.49802  -0.47789  -0.46984  -0.46747  -0.45047
 Alpha  occ. eigenvalues --   -0.43978  -0.43905  -0.42513  -0.42432  -0.41920
 Alpha  occ. eigenvalues --   -0.40712  -0.40357  -0.39705  -0.38763  -0.38440
 Alpha  occ. eigenvalues --   -0.38322  -0.37236  -0.36795  -0.36698  -0.36422
 Alpha  occ. eigenvalues --   -0.35398  -0.32377  -0.31443  -0.30908  -0.30572
 Alpha  occ. eigenvalues --   -0.29413  -0.27915  -0.27504  -0.25994  -0.21536
 Alpha virt. eigenvalues --   -0.10807  -0.05405  -0.03286  -0.00414  -0.00030
 Alpha virt. eigenvalues --    0.00528   0.01098   0.01408   0.01856   0.02058
 Alpha virt. eigenvalues --    0.02558   0.03232   0.03519   0.04291   0.04822

 Mulliken charges:
               1
     1  C   -0.477521
     2  C   -0.491616
     3  C    0.838871
     4  C    0.386421
     5  C   -0.274657
     6  C   -0.498243
     7  H    0.142099
     8  H    0.150512
     9  H    0.141524
    10  H    0.140422
    11  C   -0.083362
    12  C   -0.120680
    13  C    0.229399
    14  H    0.159223
    15  C   -0.582358
    16  H    0.150641
    17  O   -0.705249
    18  Cl   0.245359
    19  C    0.497247
    20  C    0.023596
    21  H    0.145483
    22  C   -0.542078
    23  H    0.195418
    24  H    0.173288
    25  H    0.179676
    26  C   -0.641683
    27  H    0.161276
    28  H    0.181621
    29  H    0.174679
    30  C   -0.332114
    31  H    0.173722
    32  H    0.173086
    33  O   -0.749442
    34  H    0.432860
    35  H    0.384207
    36  O   -0.819937
    37  H    0.373790
    38  H    0.464515
 Sum of Mulliken charges =   0.00000

 Dipole moment (field-independent basis, Debye):
    X=             -1.1610    Y=             -2.7068    Z=              4.3827  Tot=              5.2804
 Quadrupole moment (field-independent basis, Debye-Ang):
   XX=           -137.9197   YY=           -117.1599   ZZ=           -120.2691
   XY=            -12.5118   XZ=             10.6359   YZ=              8.6370

  Exact polarizability: 385.329 -12.980 295.154  39.591   2.776 205.303
 Approx polarizability: 512.787  -5.952 407.775  58.587   4.919 285.524

 ******    1 imaginary frequencies (negative Signs) ******

                      1                      2                      3
                      A                      A                      A
 Frequencies --   -118.1715                34.2633                44.3105
 Red. masses --      5.8473                 6.6225                 4.3378
 Frc consts  --      0.0481                 0.0046                 0.0050
 IR Inten    --     25.6175                 2.4394                 1.3354

                      4                      5                      6
                      A                      A                      A
 Frequencies --     59.2478                62.0074                72.4760
 Red. masses --      7.4265                 4.4955                 7.4534
 Frc consts  --      0.0154                 0.0102                 0.0231
 IR Inten    --      1.5927                 0.6033                 9.8519

                      7                      8                      9
                      A                      A                      A
 Frequencies --     81.0426                85.7162               128.9457
 Red. masses --      6.5390                 5.2327                 4.4517
 Frc consts  --      0.0253                 0.0227                 0.0436
 IR Inten    --      4.3076                 4.7584                 0.4647

                     10                     11                     12
                      A                      A                      A
 Frequencies --    151.0550               161.2648               164.7588
 Red. masses --      3.4584                 2.6939                 1.7569
 Frc consts  --      0.0465                 0.0413                 0.0281
 IR Inten    --      8.4324                 4.0141                 1.8934

                     13                     14                     15
                      A                      A                      A
 Frequencies --    173.5828               180.9184               195.7511
 Red. masses --      2.3574                 3.7659                 1.7755
 Frc consts  --      0.0419                 0.0726                 0.0401
 IR Inten    --      2.1658                17.5408                18.0356

                     16                     17                     18
                      A                      A                      A
 Frequencies --    203.5655               219.3530               228.2125
 Red. masses --      1.8980                 1.1146                 8.7510
 Frc consts  --      0.0463                 0.0316                 0.2685
 IR Inten    --     23.1718                94.4318                 6.6075

                     19                     20                     21
                      A                      A                      A
 Frequencies --    258.0984               303.8388               328.8006
 Red. masses --      6.1881                 2.5170                 2.7578
 Frc consts  --      0.2429                 0.1369                 0.1757
 IR Inten    --     15.6503                10.8192                 3.2487

                     22                     23                     24
                      A                      A                      A
 Frequencies --    349.6838               361.4674               385.0594
 Red. masses --      5.4455                 5.6082                 1.0855
 Frc consts  --      0.3923                 0.4317                 0.0948
 IR Inten    --     21.5890                 6.2372                60.9345

                     25                     26                     27
                      A                      A                      A
 Frequencies --    389.3110               410.4630               422.8353
 Red. masses --      7.1975                 1.2045                 2.1380
 Frc consts  --      0.6427                 0.1196                 0.2252
 IR Inten    --      3.4014                47.7678                 5.4628

                     28                     29                     30
                      A                      A                      A
 Frequencies --    431.0678               447.6968               460.9727
 Red. masses --      2.1910                 2.0485                 1.1677
 Frc consts  --      0.2399                 0.2419                 0.1462
 IR Inten    --     13.3132                16.8262               136.6782

                     31                     32                     33
                      A                      A                      A
 Frequencies --    482.3988               492.6376               532.6151
 Red. masses --      3.4365                 7.5729                 6.5608
 Frc consts  --      0.4712                 1.0828                 1.0966
 IR Inten    --      6.9940                 4.9275                 8.4376

                     34                     35                     36
                      A                      A                      A
 Frequencies --    538.0356               588.4247               600.6983
 Red. masses --      2.7661                 5.0421                 3.1997
 Frc consts  --      0.4718                 1.0286                 0.6803
 IR Inten    --      2.2881                18.5814                 4.0608

                     37                     38                     39
                      A                      A                      A
 Frequencies --    622.3496               658.0952               683.6064
 Red. masses --      1.1027                 6.8970                 3.1056
 Frc consts  --      0.2516                 1.7599                 0.8551
 IR Inten    --    185.3690                43.6807                11.9841

                     40                     41                     42
                      A                      A                      A
 Frequencies --    705.1010               743.7686               776.8072
 Red. masses --      1.3821                 5.8534                 1.7643
 Frc consts  --      0.4049                 1.9078                 0.6273
 IR Inten    --     23.9707                27.9383                61.3471

                     43                     44                     45
                      A                      A                      A
 Frequencies --    782.9596               793.0143               798.4689
 Red. masses --      2.9845                 3.1256                 3.7302
 Frc consts  --      1.0780                 1.1581                 1.4012
 IR Inten    --      6.9441                 9.1309                13.0132

                     46                     47                     48
                      A                      A                      A
 Frequencies --    818.0567               856.1437               886.0138
 Red. masses --      1.0799                 1.3103                 1.5157
 Frc consts  --      0.4258                 0.5659                 0.7010
 IR Inten    --    105.4882                69.5420                 1.5067

                     49                     50                     51
                      A                      A                      A
 Frequencies --    923.8171               928.6989               950.4766
 Red. masses --      1.2344                 1.2563                 6.0115
 Frc consts  --      0.6207                 0.6384                 3.1998
 IR Inten    --      2.9900                31.7777                50.1274

                     52                     53                     54
                      A                      A                      A
 Frequencies --    981.7663               986.6765               999.5813
 Red. masses --      1.3575                 1.2577                 1.3411
 Frc consts  --      0.7709                 0.7214                 0.7895
 IR Inten    --      1.0147                13.4120                13.7799

                     55                     56                     57
                      A                      A                      A
 Frequencies --   1000.3965              1006.3589              1018.9955
 Red. masses --      1.3334                 1.3043                 1.2959
 Frc consts  --      0.7862                 0.7783                 0.7928
 IR Inten    --      5.8587                 0.3377                 7.3397

                     58                     59                     60
                      A                      A                      A
 Frequencies --   1054.2282              1078.8668              1090.1422
 Red. masses --      2.8158                 1.6468                 2.3766
 Frc consts  --      1.8439                 1.1294                 1.6641
 IR Inten    --     31.6127               101.8600                20.4704

                     61                     62                     63
                      A                      A                      A
 Frequencies --   1095.1995              1145.0043              1178.4676
 Red. masses --      1.5175                 2.0851                 1.5893
 Frc consts  --      1.0725                 1.6106                 1.3004
 IR Inten    --      9.9099                21.1430                 5.6132

                     64                     65                     66
                      A                      A                      A
 Frequencies --   1189.2608              1220.6368              1259.0302
 Red. masses --      1.2340                 1.7416                 2.8062
 Frc consts  --      1.0283                 1.5289                 2.6209
 IR Inten    --     14.7163                34.3260                18.8619

                     67                     68                     69
                      A                      A                      A
 Frequencies --   1275.5028              1306.2731              1332.5272
 Red. masses --      1.6123                 1.7552                 4.0584
 Frc consts  --      1.5455                 1.7646                 4.2458
 IR Inten    --     19.3869                26.3357                22.3484

                     70                     71                     72
                      A                      A                      A
 Frequencies --   1348.6589              1370.4589              1383.3920
 Red. masses --      2.1660                 1.5739                 6.3302
 Frc consts  --      2.3212                 1.7417                 7.1377
 IR Inten    --     34.9891                50.9467                11.2992

                     73                     74                     75
                      A                      A                      A
 Frequencies --   1412.7304              1414.1857              1424.5536
 Red. masses --      1.3085                 1.3688                 2.7033
 Frc consts  --      1.5387                 1.6129                 3.2323
 IR Inten    --     37.4659                36.3672                60.9641

                     76                     77                     78
                      A                      A                      A
 Frequencies --   1457.5950              1463.3729              1469.9481
 Red. masses --      1.1013                 1.2182                 2.7608
 Frc consts  --      1.3786                 1.5370                 3.5147
 IR Inten    --     28.3980                46.8561                57.1643

                     79                     80                     81
                      A                      A                      A
 Frequencies --   1478.0013              1487.1591              1509.1662
 Red. masses --      2.0732                 1.1248                 1.2930
 Frc consts  --      2.6683                 1.4657                 1.7351
 IR Inten    --     61.9348                 4.8258               180.9603

                     82                     83                     84
                      A                      A                      A
 Frequencies --   1522.5858              1535.5960              1573.7584
 Red. masses --      1.3642                 2.8898                 3.4399
 Frc consts  --      1.8633                 4.0148                 5.0196
 IR Inten    --     21.5634                39.3403                42.2726

                     85                     86                     87
                      A                      A                      A
 Frequencies --   1609.8252              1618.3604              1649.7383
 Red. masses --      5.3685                 3.7835                 1.1423
 Frc consts  --      8.1971                 5.8384                 1.8317
 IR Inten    --     32.4536               218.7213                59.9423

                     88                     89                     90
                      A                      A                      A
 Frequencies --   1655.3071              1690.6983              3019.2111
 Red. masses --      4.3826                 1.0854                 1.0477
 Frc consts  --      7.0752                 1.8279                 5.6270
 IR Inten    --     11.8506               124.5434                11.3367

                     91                     92                     93
                      A                      A                      A
 Frequencies --   3029.4547              3097.8553              3117.9177
 Red. masses --      1.0519                 1.0870                 1.0819
 Frc consts  --      5.6879                 6.1460                 6.1969
 IR Inten    --     26.0588                 1.6171                 4.5099

                     94                     95                     96
                      A                      A                      A
 Frequencies --   3152.7084              3164.1494              3174.5881
 Red. masses --      1.1029                 1.1025                 1.0862
 Frc consts  --      6.4589                 6.5034                 6.4496
 IR Inten    --      7.8098                 6.5458                19.2489

                     97                     98                     99
                      A                      A                      A
 Frequencies --   3187.3762              3188.4045              3202.6196
 Red. masses --      1.0631                 1.0872                 1.0917
 Frc consts  --      6.3632                 6.5117                 6.5973
 IR Inten    --      7.3632                 5.7473                18.5644

                    100                    101                    102
                      A                      A                      A
 Frequencies --   3207.3687              3222.4132              3224.9563
 Red. masses --      1.0902                 1.0921                 1.0941
 Frc consts  --      6.6076                 6.6818                 6.7041
 IR Inten    --      7.4157                 8.6535                12.8431

                    103                    104                    105
                      A                      A                      A
 Frequencies --   3225.8292              3278.7428              3427.9459
 Red. masses --      1.0931                 1.1171                 1.0637
 Frc consts  --      6.7020                 7.0757                 7.3643
 IR Inten    --      3.6935                 1.8849              1135.0562

                    106                    107                    108
                      A                      A                      A
 Frequencies --   3664.8216              3802.4937              3871.2211
 Red. masses --      1.0555                 1.0717                 1.0679
 Frc consts  --      8.3523                 9.1294                 9.4295
 IR Inten    --    593.2957               197.7469                93.8119

 - Thermochemistry -
 -------------------
 Temperature   298.150 Kelvin.  Pressure   1.00000 Atm.
 Atom     1 has atomic number  6 and mass  12.00000

 Molecular mass:   282.10227 amu.
 Principal axes and moments of inertia in atomic units:
                           1         2         3
     Eigenvalues --  3735.941038039.194739353.85802
           X            0.99983  -0.01840  -0.00009
           Y            0.01840   0.99970   0.01588
           Z           -0.00020  -0.01588   0.99987
 This molecule is an asymmetric top.
 Rotational symmetry number  1.
 Warning -- assumption of classical behavior for rotation
           may cause significant error
 Rotational temperatures (Kelvin)      0.02318     0.01077     0.00926
 Rotational constants (GHZ):           0.48308     0.22449     0.19294
    1 imaginary frequencies ignored.
 Zero-point vibrational energy     804560.6 (Joules/Mol)
                                  192.29461 (Kcal/Mol)
 Warning -- explicit consideration of  35 degrees of freedom as
           vibrations may cause significant error
 Vibrational temperatures:     49.30    63.75    85.24    89.21   104.28
          (Kelvin)            116.60   123.33   185.52   217.33   232.02
                              237.05   249.75   260.30   281.64   292.88
                              315.60   328.35   371.35   437.16   473.07
                              503.12   520.07   554.01   560.13   590.56
                              608.36   620.21   644.14   663.24   694.06
                              708.79   766.31   774.11   846.61   864.27
                              895.42   946.85   983.56  1014.48  1070.12
                             1117.65  1126.50  1140.97  1148.82  1177.00
                             1231.80  1274.77  1329.17  1336.19  1367.52
                             1412.54  1419.61  1438.17  1439.35  1447.92
                             1466.11  1516.80  1552.25  1568.47  1575.75
                             1647.40  1695.55  1711.08  1756.22  1811.46
                             1835.16  1879.43  1917.21  1940.42  1971.78
                             1990.39  2032.60  2034.70  2049.61  2097.15
                             2105.46  2114.92  2126.51  2139.69  2171.35
                             2190.66  2209.38  2264.28  2316.18  2328.46
                             2373.60  2381.61  2432.53  4343.97  4358.70
                             4457.12  4485.98  4536.04  4552.50  4567.52
                             4585.92  4587.40  4607.85  4614.68  4636.33
                             4639.99  4641.24  4717.37  4932.04  5272.85
                             5470.93  5569.82

 Zero-point correction=                           0.306441 (Hartree/Particle)
 Thermal correction to Energy=                    0.327900
 Thermal correction to Enthalpy=                  0.328844
 Thermal correction to Gibbs Free Energy=         0.256338
 Sum of electronic and zero-point Energies=          -1268.681933
 Sum of electronic and thermal Energies=             -1268.660474
 Sum of electronic and thermal Enthalpies=           -1268.659530
 Sum of electronic and thermal Free Energies=        -1268.732036

                     E (Thermal)             CV                S
                      KCal/Mol        Cal/Mol-Kelvin    Cal/Mol-Kelvin
 Total                  205.760             80.083            152.602
 Electronic               0.000              0.000              0.000
 Translational            0.889              2.981             42.809
 Rotational               0.889              2.981             33.996
 Vibrational            203.983             74.121             75.797
 Vibration     1          0.594              1.983              5.566
 Vibration     2          0.595              1.980              5.056
 Vibration     3          0.597              1.974              4.482
 Vibration     4          0.597              1.972              4.392
 Vibration     5          0.599              1.967              4.085
 Vibration     6          0.600              1.962              3.865
 Vibration     7          0.601              1.959              3.756
 Vibration     8          0.611              1.924              2.962
 Vibration     9          0.618              1.902              2.659
 Vibration    10          0.622              1.890              2.535
 Vibration    11          0.623              1.886              2.494
 Vibration    12          0.627              1.875              2.396
 Vibration    13          0.630              1.866              2.319
 Vibration    14          0.636              1.846              2.173
 Vibration    15          0.639              1.835              2.101
 Vibration    16          0.647              1.812              1.964
 Vibration    17          0.651              1.798              1.893
 Vibration    18          0.667              1.749              1.675
 Vibration    19          0.695              1.666              1.396
 Vibration    20          0.712              1.618              1.266
 Vibration    21          0.727              1.576              1.168
 Vibration    22          0.736              1.552              1.116
 Vibration    23          0.754              1.502              1.019
 Vibration    24          0.757              1.493              1.003
 Vibration    25          0.775              1.448              0.925
 Vibration    26          0.785              1.421              0.882
 Vibration    27          0.792              1.403              0.855
 Vibration    28          0.807              1.366              0.803
 Vibration    29          0.819              1.337              0.763
 Vibration    30          0.839              1.289              0.704
 Vibration    31          0.848              1.266              0.677
 Vibration    32          0.888              1.178              0.581
 Vibration    33          0.893              1.166              0.570
 Vibration    34          0.946              1.056              0.470
 Vibration    35          0.959              1.030              0.448

 Normal termination of Gaussian 09 at Fri Aug 28 01:45:24 2020.
