 Gaussian 09, Revision D.01,
 Gaussian 09:  ES64L-G09RevD.01 24-Apr-2013

 --------------------------------------------
 #n wB97XD/Gen scrf(smd,solvent=toluene) freq
 --------------------------------------------

 ----------------------------------------
 starting material claisen toluene - freq
 ----------------------------------------
 Symbolic Z-matrix:
 Charge =  0 Multiplicity = 1

                         Standard orientation:
 ---------------------------------------------------------------------
 Center     Atomic      Atomic             Coordinates (Angstroms)
 Number     Number       Type             X           Y           Z
 ---------------------------------------------------------------------
      1          6           0       -2.692370    2.419540    0.787130
      2          6           0       -2.958760    1.209750    0.211920
      3          6           0       -1.913750    0.322880   -0.134980
      4          6           0       -0.572790    0.718670    0.113900
      5          6           0       -0.332590    1.972220    0.723140
      6          6           0       -1.365920    2.803470    1.051370
      7          1           0       -3.507021    3.082690    1.049100
      8          1           0       -3.981470    0.915660    0.021970
      9          1           0        0.685640    2.259620    0.943650
     10          1           0       -1.164361    3.756360    1.523820
     11          6           0        0.504040   -0.163480   -0.218440
     12          6           0       -2.135800   -0.963610   -0.695250
     13          6           0        0.232910   -1.405320   -0.724210
     14          1           0        1.019340   -2.110879   -0.933440
     15          6           0       -1.097170   -1.798750   -0.966430
     16          1           0       -1.285759   -2.780950   -1.378240
     17          8           0        1.728930    0.352811    0.029740
     18         17           0       -3.757820   -1.500070   -1.032360
     19          6           0        2.982690   -0.341279   -0.177710
     20          6           0        3.079270   -1.602069    0.649210
     21          1           0        3.815421   -2.315009    0.288980
     22          6           0        3.223510   -0.599039   -1.663550
     23          1           0        4.243100   -0.961569   -1.801830
     24          1           0        2.548050   -1.338559   -2.087820
     25          1           0        3.114150    0.329171   -2.225530
     26          6           0        4.016560    0.657561    0.339330
     27          1           0        3.802570    0.911961    1.377460
     28          1           0        5.013560    0.218601    0.290930
     29          1           0        4.012130    1.567641   -0.263820
     30          6           0        2.406390   -1.852839    1.759090
     31          1           0        2.570421   -2.769559    2.312020
     32          1           0        1.663860   -1.169489    2.155890
     33          8           0       -0.984040   -1.283400    2.806360
     34          1           0       -0.891320   -1.674100    1.933040
     35          1           0       -1.295290   -0.390930    2.635740
     36          8           0        1.824130    2.754311   -1.789790
     37          1           0        0.922549    3.078601   -1.842360
     38          1           0        1.787880    2.035931   -1.147040
 ---------------------------------------------------------------------

 SCF Done:  E(RwB97XD) =  -1268.98004096     A.U. after   16 cycles

 The electronic state is 1-A.
 Alpha  occ. eigenvalues -- -101.70252 -19.29704 -19.24586 -19.24133 -10.36819
 Alpha  occ. eigenvalues --  -10.36745 -10.35211 -10.31981 -10.31506 -10.30677
 Alpha  occ. eigenvalues --  -10.29955 -10.29921 -10.29853 -10.29797 -10.29745
 Alpha  occ. eigenvalues --  -10.29297 -10.28005 -10.27906 -10.27804  -9.58788
 Alpha  occ. eigenvalues --   -7.33427  -7.32575  -7.32551  -1.18771  -1.10803
 Alpha  occ. eigenvalues --   -1.10364  -1.01124  -0.96748  -0.94264  -0.92102
 Alpha  occ. eigenvalues --   -0.87160  -0.86161  -0.85447  -0.82232  -0.79627
 Alpha  occ. eigenvalues --   -0.74537  -0.73470  -0.71820  -0.69918  -0.65925
 Alpha  occ. eigenvalues --   -0.62823  -0.61646  -0.61355  -0.61279  -0.59696
 Alpha  occ. eigenvalues --   -0.58087  -0.57143  -0.56270  -0.53587  -0.53170
 Alpha  occ. eigenvalues --   -0.53010  -0.52579  -0.51754  -0.50973  -0.49399
 Alpha  occ. eigenvalues --   -0.48902  -0.48370  -0.47778  -0.47217  -0.46879
 Alpha  occ. eigenvalues --   -0.46578  -0.45715  -0.45313  -0.44016  -0.43486
 Alpha  occ. eigenvalues --   -0.43104  -0.40998  -0.40093  -0.39742  -0.39583
 Alpha  occ. eigenvalues --   -0.39483  -0.35786  -0.35302  -0.33795  -0.28918
 Alpha virt. eigenvalues --    0.00507   0.02944   0.03903   0.04591   0.05120
 Alpha virt. eigenvalues --    0.05766   0.05920   0.06166   0.06505   0.07255
 Alpha virt. eigenvalues --    0.07627   0.07912   0.08105   0.08737   0.08840

 Mulliken charges:
               1
     1  C   -0.009329
     2  C   -0.188613
     3  C   -0.002238
     4  C   -0.237073
     5  C   -0.444616
     6  C    0.054514
     7  H    0.166012
     8  H    0.176399
     9  H    0.230188
    10  H    0.167875
    11  C    0.369102
    12  C    0.228838
    13  C   -0.417817
    14  H    0.195494
    15  C   -0.151292
    16  H    0.179146
    17  O   -0.460233
    18  Cl  -0.171655
    19  C   -0.002019
    20  C   -0.021282
    21  H    0.175363
    22  C   -0.377069
    23  H    0.169073
    24  H    0.156859
    25  H    0.178630
    26  C   -0.549818
    27  H    0.164322
    28  H    0.170304
    29  H    0.167726
    30  C   -0.381735
    31  H    0.167877
    32  H    0.211814
    33  O   -0.628888
    34  H    0.343743
    35  H    0.364839
    36  O   -0.597660
    37  H    0.347493
    38  H    0.255724
 Sum of Mulliken charges =   0.00000

 Dipole moment (field-independent basis, Debye):
    X=              1.5596    Y=             -0.0931    Z=             -0.6278  Tot=              1.6839
 Quadrupole moment (field-independent basis, Debye-Ang):
   XX=           -115.9146   YY=           -116.5517   ZZ=           -134.2577
   XY=            -17.0805   XZ=              1.3505   YZ=             13.1032

  Exact polarizability: 294.037  -8.381 259.006  -3.848  30.399 188.883
 Approx polarizability: 265.334  -4.755 253.360  -3.743  31.445 192.857

                      1                      2                      3
                      A                      A                      A
 Frequencies --     26.3814                35.9065                41.9815
 Red. masses --      6.7559                 4.9497                 6.0644
 Frc consts  --      0.0028                 0.0038                 0.0063
 IR Inten    --      3.1901                 1.1167                 2.2860

                      4                      5                      6
                      A                      A                      A
 Frequencies --     53.4733                62.2345                66.7756
 Red. masses --      5.9737                 3.9141                 5.2194
 Frc consts  --      0.0101                 0.0089                 0.0137
 IR Inten    --      5.0218                 4.2302                 2.2211

                      7                      8                      9
                      A                      A                      A
 Frequencies --    105.9858               113.7554               121.5631
 Red. masses --      5.2076                 2.4043                 4.6843
 Frc consts  --      0.0345                 0.0183                 0.0408
 IR Inten    --      1.0832                 3.8927                 1.3732

                     10                     11                     12
                      A                      A                      A
 Frequencies --    128.2406               138.6473               150.2060
 Red. masses --      2.8999                 3.9433                 2.4371
 Frc consts  --      0.0281                 0.0447                 0.0324
 IR Inten    --      6.6793                 2.4539                14.1998

                     13                     14                     15
                      A                      A                      A
 Frequencies --    161.5716               178.3940               191.3632
 Red. masses --      1.2158                 1.1966                 2.3771
 Frc consts  --      0.0187                 0.0224                 0.0513
 IR Inten    --     72.2511                 3.8981                 3.6161

                     16                     17                     18
                      A                      A                      A
 Frequencies --    203.1905               211.2868               235.1015
 Red. masses --      2.2001                 2.5033                 6.2999
 Frc consts  --      0.0535                 0.0658                 0.2052
 IR Inten    --      6.1897                 3.5576                 1.5669

                     19                     20                     21
                      A                      A                      A
 Frequencies --    251.6015               262.8604               273.6807
 Red. masses --      1.1365                 1.1079                 1.2648
 Frc consts  --      0.0424                 0.0451                 0.0558
 IR Inten    --    138.7398                90.2370                24.3080

                     22                     23                     24
                      A                      A                      A
 Frequencies --    280.8406               324.1893               326.3901
 Red. masses --      2.2585                 1.3538                 1.9480
 Frc consts  --      0.1050                 0.0838                 0.1223
 IR Inten    --      6.2407                76.6704                25.3060

                     25                     26                     27
                      A                      A                      A
 Frequencies --    339.3882               373.1953               391.9793
 Red. masses --      2.2785                 4.5394                 2.8403
 Frc consts  --      0.1546                 0.3725                 0.2571
 IR Inten    --      4.9938                 6.2732                 2.3139

                     28                     29                     30
                      A                      A                      A
 Frequencies --    425.6082               431.5925               448.5671
 Red. masses --      4.4634                 2.5883                 2.6843
 Frc consts  --      0.4764                 0.2841                 0.3182
 IR Inten    --      3.9664                16.6511                 8.9934

                     31                     32                     33
                      A                      A                      A
 Frequencies --    480.6536               486.7543               503.9803
 Red. masses --      1.5827                 2.1114                 4.7348
 Frc consts  --      0.2154                 0.2947                 0.7086
 IR Inten    --     43.3219                26.6692                 2.9022

                     34                     35                     36
                      A                      A                      A
 Frequencies --    539.1994               564.7994               605.2417
 Red. masses --      5.9103                 3.9028                 4.2316
 Frc consts  --      1.0124                 0.7335                 0.9133
 IR Inten    --      5.2282                 2.8897                 2.0896

                     37                     38                     39
                      A                      A                      A
 Frequencies --    619.7432               667.5139               674.4712
 Red. masses --      3.3086                 3.5434                 4.8173
 Frc consts  --      0.7487                 0.9302                 1.2912
 IR Inten    --      5.0459                 6.3366                18.2053

                     40                     41                     42
                      A                      A                      A
 Frequencies --    705.8669               753.5504               777.9212
 Red. masses --      2.0442                 5.0462                 3.8451
 Frc consts  --      0.6001                 1.6882                 1.3710
 IR Inten    --     20.7857                13.3912                23.1328

                     43                     44                     45
                      A                      A                      A
 Frequencies --    803.7362               810.8217               814.1049
 Red. masses --      1.4158                 3.7521                 4.8957
 Frc consts  --      0.5388                 1.4534                 1.9117
 IR Inten    --     79.3699                 1.5744                 3.1469

                     46                     47                     48
                      A                      A                      A
 Frequencies --    863.9245               906.9835               909.4634
 Red. masses --      1.3660                 2.6435                 1.5255
 Frc consts  --      0.6007                 1.2813                 0.7434
 IR Inten    --     50.5213                55.1902                 1.1479

                     49                     50                     51
                      A                      A                      A
 Frequencies --    956.1345               965.3257               974.1159
 Red. masses --      1.4834                 2.0367                 1.5066
 Frc consts  --      0.7990                 1.1182                 0.8423
 IR Inten    --      3.6747                19.0962                 6.9382

                     52                     53                     54
                      A                      A                      A
 Frequencies --    985.6948              1008.6990              1015.4499
 Red. masses --      3.7956                 1.3794                 1.3391
 Frc consts  --      2.1728                 0.8269                 0.8136
 IR Inten    --     17.7057                29.8701                 1.5114

                     55                     56                     57
                      A                      A                      A
 Frequencies --   1039.3415              1039.8691              1053.2437
 Red. masses --      1.2818                 1.3048                 1.1595
 Frc consts  --      0.8158                 0.8313                 0.7578
 IR Inten    --      4.3097                 0.5558                19.7636

                     58                     59                     60
                      A                      A                      A
 Frequencies --   1069.8185              1071.0176              1113.0125
 Red. masses --      1.4158                 2.5174                 2.5139
 Frc consts  --      0.9547                 1.7014                 1.8348
 IR Inten    --     41.3167                18.0852                78.2012

                     61                     62                     63
                      A                      A                      A
 Frequencies --   1174.2438              1201.9908              1205.6542
 Red. masses --      2.4468                 1.7577                 1.7627
 Frc consts  --      1.9878                 1.4962                 1.5096
 IR Inten    --      0.1319               156.1367                72.7263

                     64                     65                     66
                      A                      A                      A
 Frequencies --   1213.5966              1225.8613              1237.2111
 Red. masses --      1.5019                 3.1510                 1.6664
 Frc consts  --      1.3033                 2.7898                 1.5029
 IR Inten    --     20.4337                22.5127                 9.5478

                     67                     68                     69
                      A                      A                      A
 Frequencies --   1266.9275              1288.3584              1321.0978
 Red. masses --      2.6478                 2.3935                 1.7540
 Frc consts  --      2.5040                 2.3408                 1.8037
 IR Inten    --    114.7747               113.7408                21.4916

                     70                     71                     72
                      A                      A                      A
 Frequencies --   1338.8830              1370.9595              1418.4048
 Red. masses --      1.3009                 3.9876                 1.2670
 Frc consts  --      1.3740                 4.4158                 1.5019
 IR Inten    --      6.9065                66.7068                16.2786

                     73                     74                     75
                      A                      A                      A
 Frequencies --   1420.4104              1428.7909              1437.3057
 Red. masses --      7.6638                 1.9837                 1.2281
 Frc consts  --      9.1101                 2.3860                 1.4948
 IR Inten    --     71.8835               121.0252                25.2574

                     76                     77                     78
                      A                      A                      A
 Frequencies --   1459.8453              1478.1275              1482.0040
 Red. masses --      1.1841                 1.0450                 1.0639
 Frc consts  --      1.4868                 1.3452                 1.3767
 IR Inten    --     11.6209                 1.6499                13.9455

                     79                     80                     81
                      A                      A                      A
 Frequencies --   1487.3035              1498.5341              1505.6680
 Red. masses --      2.2308                 1.1372                 1.3802
 Frc consts  --      2.9074                 1.5046                 1.8436
 IR Inten    --     24.6640                 9.2897                26.4797

                     82                     83                     84
                      A                      A                      A
 Frequencies --   1511.4521              1571.4536              1638.6392
 Red. masses --      1.5075                 3.2627                 1.0827
 Frc consts  --      2.0291                 4.7471                 1.7129
 IR Inten    --     50.0528                22.0692               150.9774

                     85                     86                     87
                      A                      A                      A
 Frequencies --   1645.3766              1651.3374              1666.2833
 Red. masses --      2.5385                 1.5058                 5.6253
 Frc consts  --      4.0491                 2.4193                 9.2022
 IR Inten    --      4.6839               149.8813                99.1729

                     88                     89                     90
                      A                      A                      A
 Frequencies --   1702.2011              1736.2141              3060.0615
 Red. masses --      6.1145                 4.9176                 1.0362
 Frc consts  --     10.4384                 8.7340                 5.7170
 IR Inten    --      8.7600                 3.9049                14.0885

                     91                     92                     93
                      A                      A                      A
 Frequencies --   3079.3016              3141.0053              3151.4561
 Red. masses --      1.0382                 1.1029                 1.1026
 Frc consts  --      5.8000                 6.4110                 6.4519
 IR Inten    --     12.3262                14.3324                 8.7350

                     94                     95                     96
                      A                      A                      A
 Frequencies --   3154.8194              3163.1080              3173.0142
 Red. masses --      1.1018                 1.0631                 1.1009
 Frc consts  --      6.4613                 6.2670                 6.5307
 IR Inten    --     21.8144                 6.5085                18.2102

                     97                     98                     99
                      A                      A                      A
 Frequencies --   3174.1818              3209.5578              3223.5740
 Red. masses --      1.0905                 1.0878                 1.0918
 Frc consts  --      6.4737                 6.6023                 6.6844
 IR Inten    --      9.7903                 4.0972                 8.6654

                    100                    101                    102
                      A                      A                      A
 Frequencies --   3225.9810              3242.4634              3246.1671
 Red. masses --      1.0922                 1.0931                 1.0945
 Frc consts  --      6.6969                 6.7712                 6.7954
 IR Inten    --      2.1397                 2.7304                 3.6549

                    103                    104                    105
                      A                      A                      A
 Frequencies --   3255.6767              3278.7833              3789.1029
 Red. masses --      1.1162                 1.0915                 1.0508
 Frc consts  --      6.9705                 6.9136                 8.8889
 IR Inten    --      6.6119                 4.8422               191.0104

                    106                    107                    108
                      A                      A                      A
 Frequencies --   3834.8784              3913.8210              3927.0092
 Red. masses --      1.0453                 1.0764                 1.0815
 Frc consts  --      9.0571                 9.7146                 9.8262
 IR Inten    --     27.4107                99.8664                37.0062

 - Thermochemistry -
 -------------------
 Temperature   298.150 Kelvin.  Pressure   1.00000 Atm.
 Atom     1 has atomic number  6 and mass  12.00000

 Molecular mass:   282.10227 amu.
 Principal axes and moments of inertia in atomic units:
                           1         2         3
     Eigenvalues --  3895.560037493.600598599.52420
           X            0.99956  -0.02567  -0.01502
           Y            0.02560   0.99966  -0.00436
           Z            0.01513   0.00397   0.99988
 This molecule is an asymmetric top.
 Rotational symmetry number  1.
 Warning -- assumption of classical behavior for rotation
           may cause significant error
 Rotational temperatures (Kelvin)      0.02223     0.01156     0.01007
 Rotational constants (GHZ):           0.46328     0.24084     0.20987
 Zero-point vibrational energy     813248.3 (Joules/Mol)
                                  194.37101 (Kcal/Mol)
 Warning -- explicit consideration of  37 degrees of freedom as
           vibrations may cause significant error
 Vibrational temperatures:     37.96    51.66    60.40    76.94    89.54
          (Kelvin)             96.08   152.49   163.67   174.90   184.51
                              199.48   216.11   232.47   256.67   275.33
                              292.35   303.99   338.26   362.00   378.20
                              393.77   404.07   466.44   469.60   488.30
                              536.94   563.97   612.35   620.96   645.39
                              691.55   700.33   725.11   775.79   812.62
                              870.81   891.67   960.40   970.41  1015.58
                             1084.19  1119.25  1156.40  1166.59  1171.31
                             1242.99  1304.95  1308.51  1375.66  1388.89
                             1401.53  1418.19  1451.29  1461.00  1495.38
                             1496.14  1515.38  1539.23  1540.95  1601.37
                             1689.47  1729.39  1734.67  1746.09  1763.74
                             1780.07  1822.82  1853.66  1900.76  1926.35
                             1972.50  2040.77  2043.65  2055.71  2067.96
                             2100.39  2126.69  2132.27  2139.90  2156.05
                             2166.32  2174.64  2260.97  2357.63  2367.33
                             2375.90  2397.41  2449.08  2498.02  4402.74
                             4430.42  4519.20  4534.24  4539.08  4551.00
                             4565.25  4566.93  4617.83  4638.00  4641.46
                             4665.18  4670.50  4684.19  4717.43  5451.67
                             5517.53  5631.11  5650.08

 Zero-point correction=                           0.309750 (Hartree/Particle)
 Thermal correction to Energy=                    0.332572
 Thermal correction to Enthalpy=                  0.333516
 Thermal correction to Gibbs Free Energy=         0.257121
 Sum of electronic and zero-point Energies=          -1268.670291
 Sum of electronic and thermal Energies=             -1268.647469
 Sum of electronic and thermal Enthalpies=           -1268.646525
 Sum of electronic and thermal Free Energies=        -1268.722920

                     E (Thermal)             CV                S
                      KCal/Mol        Cal/Mol-Kelvin    Cal/Mol-Kelvin
 Total                  208.692             82.332            160.786
 Electronic               0.000              0.000              0.000
 Translational            0.889              2.981             42.809
 Rotational               0.889              2.981             33.884
 Vibrational            206.915             76.371             84.093
 Vibration     1          0.593              1.985              6.084
 Vibration     2          0.594              1.982              5.473
 Vibration     3          0.595              1.980              5.163
 Vibration     4          0.596              1.976              4.685
 Vibration     5          0.597              1.972              4.385
 Vibration     6          0.598              1.970              4.246
 Vibration     7          0.605              1.944              3.341
 Vibration     8          0.607              1.938              3.204
 Vibration     9          0.609              1.931              3.075
 Vibration    10          0.611              1.925              2.972
 Vibration    11          0.614              1.915              2.822
 Vibration    12          0.618              1.902              2.670
 Vibration    13          0.622              1.890              2.531
 Vibration    14          0.629              1.869              2.345
 Vibration    15          0.634              1.852              2.215
 Vibration    16          0.639              1.835              2.104
 Vibration    17          0.643              1.824              2.033
 Vibration    18          0.655              1.787              1.840
 Vibration    19          0.664              1.760              1.719
 Vibration    20          0.670              1.741              1.643
 Vibration    21          0.676              1.722              1.573
 Vibration    22          0.681              1.709              1.529
 Vibration    23          0.709              1.627              1.289
 Vibration    24          0.710              1.623              1.278
 Vibration    25          0.719              1.597              1.215
 Vibration    26          0.745              1.527              1.067
 Vibration    27          0.759              1.487              0.993
 Vibration    28          0.787              1.415              0.873
 Vibration    29          0.793              1.401              0.853
 Vibration    30          0.808              1.364              0.800
 Vibration    31          0.837              1.293              0.708
 Vibration    32          0.843              1.279              0.692
 Vibration    33          0.859              1.241              0.648
 Vibration    34          0.894              1.163              0.567
 Vibration    35          0.921              1.107              0.514
 Vibration    36          0.964              1.021              0.441
 Vibration    37          0.980              0.990              0.417

 Normal termination of Gaussian 09 at Sat Feb  5 01:12:15 2022.
