 Gaussian 09, Revision D.01,
 Gaussian 09:  ES64L-G09RevD.01 24-Apr-2013

 -------------------------------------------
 #n wB97XD/Gen scrf(smd,solvent=toluene) opt
 -------------------------------------------

 ---------------------------------------
 starting material claisen toluene - opt
 ---------------------------------------
 Symbolic Z-matrix:
 Charge =  0 Multiplicity = 1

 SCF Done:  E(RwB97XD) =  -1268.97517621     A.U. after   16 cycles
 SCF Done:  E(RwB97XD) =  -1268.97079772     A.U. after   15 cycles
 SCF Done:  E(RwB97XD) =  -1268.97656832     A.U. after   12 cycles
 SCF Done:  E(RwB97XD) =  -1268.97828046     A.U. after   13 cycles
 SCF Done:  E(RwB97XD) =  -1268.97761558     A.U. after   14 cycles
 SCF Done:  E(RwB97XD) =  -1268.97861806     A.U. after   11 cycles
 SCF Done:  E(RwB97XD) =  -1268.97919233     A.U. after   13 cycles
 SCF Done:  E(RwB97XD) =  -1268.97925156     A.U. after   13 cycles
 SCF Done:  E(RwB97XD) =  -1268.97948443     A.U. after   12 cycles
 SCF Done:  E(RwB97XD) =  -1268.97957444     A.U. after   11 cycles
 SCF Done:  E(RwB97XD) =  -1268.98004090     A.U. after    9 cycles
 SCF Done:  E(RwB97XD) =  -1268.98002606     A.U. after   10 cycles
 SCF Done:  E(RwB97XD) =  -1268.98003866     A.U. after   10 cycles
 SCF Done:  E(RwB97XD) =  -1268.98003828     A.U. after   10 cycles
 SCF Done:  E(RwB97XD) =  -1268.98004258     A.U. after    9 cycles
 SCF Done:  E(RwB97XD) =  -1268.98004208     A.U. after   10 cycles
 SCF Done:  E(RwB97XD) =  -1268.98004154     A.U. after   10 cycles
 SCF Done:  E(RwB97XD) =  -1268.98004130     A.U. after    8 cycles
 SCF Done:  E(RwB97XD) =  -1268.98004100     A.U. after    8 cycles
 SCF Done:  E(RwB97XD) =  -1268.98004096     A.U. after    8 cycles
 Optimization completed.
    -- Stationary point found.

                         Standard orientation:
 ---------------------------------------------------------------------
 Center     Atomic      Atomic             Coordinates (Angstroms)
 Number     Number       Type             X           Y           Z
 ---------------------------------------------------------------------
      1          6           0       -2.692366    2.419539    0.787126
      2          6           0       -2.958755    1.209746    0.211923
      3          6           0       -1.913749    0.322875   -0.134976
      4          6           0       -0.572793    0.718674    0.113904
      5          6           0       -0.332589    1.972216    0.723143
      6          6           0       -1.365916    2.803473    1.051366
      7          1           0       -3.507019    3.082691    1.049102
      8          1           0       -3.981472    0.915664    0.021970
      9          1           0        0.685642    2.259623    0.943646
     10          1           0       -1.164355    3.756359    1.523825
     11          6           0        0.504036   -0.163481   -0.218438
     12          6           0       -2.135803   -0.963607   -0.695251
     13          6           0        0.232907   -1.405319   -0.724210
     14          1           0        1.019336   -2.110877   -0.933441
     15          6           0       -1.097174   -1.798750   -0.966430
     16          1           0       -1.285762   -2.780946   -1.378242
     17          8           0        1.728931    0.352809    0.029735
     18         17           0       -3.757821   -1.500066   -1.032359
     19          6           0        2.982687   -0.341279   -0.177710
     20          6           0        3.079269   -1.602075    0.649214
     21          1           0        3.815424   -2.315009    0.288983
     22          6           0        3.223512   -0.599040   -1.663545
     23          1           0        4.243103   -0.961574   -1.801831
     24          1           0        2.548051   -1.338556   -2.087822
     25          1           0        3.114153    0.329173   -2.225531
     26          6           0        4.016560    0.657559    0.339331
     27          1           0        3.802574    0.911964    1.377461
     28          1           0        5.013559    0.218604    0.290930
     29          1           0        4.012130    1.567642   -0.263821
     30          6           0        2.406389   -1.852839    1.759086
     31          1           0        2.570419   -2.769564    2.312019
     32          1           0        1.663863   -1.169485    2.155892
     33          8           0       -0.984037   -1.283398    2.806356
     34          1           0       -0.891318   -1.674101    1.933042
     35          1           0       -1.295289   -0.390930    2.635743
     36          8           0        1.824132    2.754308   -1.789794
     37          1           0        0.922549    3.078600   -1.842357
     38          1           0        1.787879    2.035931   -1.147041
 ---------------------------------------------------------------------

 The electronic state is 1-A.
 Alpha  occ. eigenvalues -- -101.70252 -19.29704 -19.24586 -19.24133 -10.36819
 Alpha  occ. eigenvalues --  -10.36745 -10.35211 -10.31981 -10.31506 -10.30677
 Alpha  occ. eigenvalues --  -10.29955 -10.29921 -10.29854 -10.29797 -10.29745
 Alpha  occ. eigenvalues --  -10.29297 -10.28005 -10.27906 -10.27804  -9.58788
 Alpha  occ. eigenvalues --   -7.33428  -7.32575  -7.32552  -1.18771  -1.10803
 Alpha  occ. eigenvalues --   -1.10364  -1.01124  -0.96748  -0.94264  -0.92102
 Alpha  occ. eigenvalues --   -0.87160  -0.86161  -0.85447  -0.82232  -0.79626
 Alpha  occ. eigenvalues --   -0.74537  -0.73470  -0.71820  -0.69918  -0.65925
 Alpha  occ. eigenvalues --   -0.62823  -0.61646  -0.61355  -0.61279  -0.59696
 Alpha  occ. eigenvalues --   -0.58087  -0.57143  -0.56270  -0.53587  -0.53170
 Alpha  occ. eigenvalues --   -0.53010  -0.52579  -0.51754  -0.50973  -0.49399
 Alpha  occ. eigenvalues --   -0.48902  -0.48370  -0.47778  -0.47217  -0.46878
 Alpha  occ. eigenvalues --   -0.46578  -0.45715  -0.45313  -0.44016  -0.43486
 Alpha  occ. eigenvalues --   -0.43104  -0.40998  -0.40093  -0.39742  -0.39583
 Alpha  occ. eigenvalues --   -0.39483  -0.35786  -0.35302  -0.33795  -0.28918
 Alpha virt. eigenvalues --    0.00507   0.02944   0.03903   0.04591   0.05120
 Alpha virt. eigenvalues --    0.05766   0.05920   0.06166   0.06505   0.07255
 Alpha virt. eigenvalues --    0.07627   0.07912   0.08105   0.08737   0.08840

 Mulliken charges:
               1
     1  C   -0.009326
     2  C   -0.188614
     3  C   -0.002254
     4  C   -0.237064
     5  C   -0.444614
     6  C    0.054525
     7  H    0.166012
     8  H    0.176399
     9  H    0.230183
    10  H    0.167876
    11  C    0.369096
    12  C    0.228848
    13  C   -0.417805
    14  H    0.195494
    15  C   -0.151302
    16  H    0.179146
    17  O   -0.460237
    18  Cl  -0.171653
    19  C   -0.002021
    20  C   -0.021278
    21  H    0.175363
    22  C   -0.377070
    23  H    0.169073
    24  H    0.156859
    25  H    0.178629
    26  C   -0.549817
    27  H    0.164322
    28  H    0.170304
    29  H    0.167726
    30  C   -0.381740
    31  H    0.167876
    32  H    0.211815
    33  O   -0.628889
    34  H    0.343743
    35  H    0.364839
    36  O   -0.597660
    37  H    0.347493
    38  H    0.255722
 Sum of Mulliken charges =   0.00000

 Dipole moment (field-independent basis, Debye):
    X=              1.5596    Y=             -0.0931    Z=             -0.6278  Tot=              1.6838
 Quadrupole moment (field-independent basis, Debye-Ang):
   XX=           -115.9147   YY=           -116.5517   ZZ=           -134.2576
   XY=            -17.0804   XZ=              1.3506   YZ=             13.1033

 Normal termination of Gaussian 09 at Fri Feb  4 04:46:18 2022.
