 Gaussian 09, Revision D.01,
 Gaussian 09:  ES64L-G09RevD.01 24-Apr-2013

 -------------------------------------------------------------------
 #n wB97XD/Gen scrf(smd,solvent=toluene) opt=(calcfc,ts,noeigentest)
 -------------------------------------------------------------------

 ------------------------
 ts_claisen toluene - opt
 ------------------------
 Symbolic Z-matrix:
 Charge =  0 Multiplicity = 1

 SCF Done:  E(RwB97XD) =  -1268.94803090     A.U. after   16 cycles

  Exact polarizability:   0.000   0.000   0.000   0.000   0.000   0.000
 Approx polarizability: 314.952   2.104 277.082  17.128   6.789 203.014

 SCF Done:  E(RwB97XD) =  -1268.94802892     A.U. after    9 cycles
 SCF Done:  E(RwB97XD) =  -1268.94802972     A.U. after    7 cycles
 Optimization completed.
    -- Stationary point found.

                         Standard orientation:
 ---------------------------------------------------------------------
 Center     Atomic      Atomic             Coordinates (Angstroms)
 Number     Number       Type             X           Y           Z
 ---------------------------------------------------------------------
      1          6           0       -2.676112    2.731907    0.320733
      2          6           0       -3.057873    1.425776    0.158473
      3          6           0       -2.107065    0.425279   -0.125018
      4          6           0       -0.744293    0.792237   -0.230176
      5          6           0       -0.385778    2.141290   -0.072021
      6          6           0       -1.328734    3.097173    0.199749
      7          1           0       -3.422537    3.486126    0.536256
      8          1           0       -4.101312    1.156049    0.244223
      9          1           0        0.656454    2.411298   -0.172321
     10          1           0       -1.036019    4.132723    0.318483
     11          6           0        0.272093   -0.206351   -0.532722
     12          6           0       -2.455272   -0.949888   -0.332255
     13          6           0       -0.148308   -1.538174   -0.676342
     14          1           0        0.567007   -2.269397   -1.025267
     15          6           0       -1.520246   -1.884727   -0.622337
     16          1           0       -1.814152   -2.911386   -0.796977
     17          8           0        1.509347    0.108794   -0.588667
     18         17           0       -4.126796   -1.436556   -0.234940
     19          6           0        2.480434   -0.388463    1.430699
     20          6           0        1.986940   -1.691907    1.369667
     21          1           0        2.645221   -2.445940    0.953132
     22          6           0        3.893580   -0.126080    1.053042
     23          1           0        3.976839    0.810504    0.499941
     24          1           0        4.484092   -0.010603    1.968926
     25          1           0        4.319992   -0.932282    0.459310
     26          6           0        1.795706    0.701001    2.178383
     27          1           0        0.712021    0.612778    2.188343
     28          1           0        2.140860    0.660351    3.217636
     29          1           0        2.070702    1.675722    1.779891
     30          6           0        0.675152   -2.016835    1.565435
     31          1           0        0.348186   -3.043717    1.470883
     32          1           0       -0.035040   -1.337039    2.014949
     33          8           0        3.388392    1.902424   -1.741099
     34          1           0        2.597583    1.515300   -1.338556
     35          1           0        3.838987    1.124965   -2.087975
     36          8           0        3.406249   -1.154000   -2.139767
     37          1           0        3.021756   -1.332527   -2.999862
     38          1           0        2.671630   -0.812636   -1.592634
 ---------------------------------------------------------------------

 The electronic state is 1-A.
 Alpha  occ. eigenvalues -- -101.70025 -19.23377 -19.23287 -19.21917 -10.35956
 Alpha  occ. eigenvalues --  -10.35082 -10.34893 -10.32878 -10.31353 -10.30211
 Alpha  occ. eigenvalues --  -10.30091 -10.29773 -10.29555 -10.29325 -10.29209
 Alpha  occ. eigenvalues --  -10.29157 -10.29037 -10.28963 -10.28265  -9.58564
 Alpha  occ. eigenvalues --   -7.33196  -7.32357  -7.32330  -1.12425  -1.09368
 Alpha  occ. eigenvalues --   -1.08090  -1.00160  -0.95939  -0.95111  -0.91836
 Alpha  occ. eigenvalues --   -0.86741  -0.86118  -0.85223  -0.81008  -0.80149
 Alpha  occ. eigenvalues --   -0.73835  -0.72669  -0.72322  -0.67369  -0.63455
 Alpha  occ. eigenvalues --   -0.62041  -0.61335  -0.60455  -0.59107  -0.58361
 Alpha  occ. eigenvalues --   -0.58074  -0.56195  -0.55722  -0.54918  -0.52973
 Alpha  occ. eigenvalues --   -0.52019  -0.51877  -0.50894  -0.50263  -0.49599
 Alpha  occ. eigenvalues --   -0.48411  -0.47922  -0.47522  -0.46975  -0.46466
 Alpha  occ. eigenvalues --   -0.45992  -0.45162  -0.44903  -0.44577  -0.44123
 Alpha  occ. eigenvalues --   -0.42614  -0.39863  -0.39150  -0.38847  -0.38137
 Alpha  occ. eigenvalues --   -0.37303  -0.35283  -0.34685  -0.32510  -0.27507
 Alpha virt. eigenvalues --   -0.03460   0.01813   0.03872   0.04115   0.04764
 Alpha virt. eigenvalues --    0.05241   0.05935   0.06339   0.06537   0.07387
 Alpha virt. eigenvalues --    0.07507   0.07738   0.08396   0.08843   0.09030

 Mulliken charges:
               1
     1  C   -0.019497
     2  C   -0.194455
     3  C   -0.016483
     4  C   -0.131474
     5  C   -0.093801
     6  C   -0.016378
     7  H    0.163311
     8  H    0.172637
     9  H    0.192441
    10  H    0.162625
    11  C    0.089342
    12  C    0.037629
    13  C   -0.294777
    14  H    0.201103
    15  C    0.014826
    16  H    0.179349
    17  O   -0.861445
    18  Cl  -0.174895
    19  C    0.239320
    20  C    0.029896
    21  H    0.175888
    22  C   -0.500638
    23  H    0.191845
    24  H    0.173800
    25  H    0.175330
    26  C   -0.560583
    27  H    0.164733
    28  H    0.184514
    29  H    0.185586
    30  C   -0.288604
    31  H    0.191935
    32  H    0.215400
    33  O   -0.628329
    34  H    0.349293
    35  H    0.352493
    36  O   -0.670439
    37  H    0.354473
    38  H    0.254030
 Sum of Mulliken charges =   0.00000

 Dipole moment (field-independent basis, Debye):
    X=             -0.7607    Y=             -2.5683    Z=              4.4221  Tot=              5.1701
 Quadrupole moment (field-independent basis, Debye-Ang):
   XX=           -135.8779   YY=           -115.4907   ZZ=           -117.8988
   XY=            -11.9090   XZ=             10.8952   YZ=              7.2261

 Normal termination of Gaussian 09 at Tue Feb  8 02:39:48 2022.
