 Gaussian 09, Revision D.01,
 Gaussian 09:  ES64L-G09RevD.01 24-Apr-2013

 --------------------------------------------
 #n wB97XD/Gen scrf(smd,solvent=toluene) freq
 --------------------------------------------

 -------------------------
 ts_claisen toluene - freq
 -------------------------
 Symbolic Z-matrix:
 Charge =  0 Multiplicity = 1

                         Standard orientation:
 ---------------------------------------------------------------------
 Center     Atomic      Atomic             Coordinates (Angstroms)
 Number     Number       Type             X           Y           Z
 ---------------------------------------------------------------------
      1          6           0       -2.676108    2.731912    0.320731
      2          6           0       -3.057869    1.425782    0.158471
      3          6           0       -2.107060    0.425282   -0.125019
      4          6           0       -0.744289    0.792241   -0.230179
      5          6           0       -0.385779    2.141291   -0.072019
      6          6           0       -1.328728    3.097171    0.199751
      7          1           0       -3.422538    3.486132    0.536261
      8          1           0       -4.101309    1.156052    0.244221
      9          1           0        0.656451    2.411300   -0.172319
     10          1           0       -1.036018    4.132721    0.318481
     11          6           0        0.272090   -0.206350   -0.532719
     12          6           0       -2.455270   -0.949888   -0.332259
     13          6           0       -0.148311   -1.538169   -0.676339
     14          1           0        0.567009   -2.269400   -1.025269
     15          6           0       -1.520251   -1.884729   -0.622339
     16          1           0       -1.814151   -2.911389   -0.796979
     17          8           0        1.509350    0.108790   -0.588669
     18         17           0       -4.126801   -1.436558   -0.234939
     19          6           0        2.480430   -0.388461    1.430701
     20          6           0        1.986939   -1.691911    1.369671
     21          1           0        2.645219   -2.445941    0.953131
     22          6           0        3.893580   -0.126081    1.053041
     23          1           0        3.976841    0.810499    0.499941
     24          1           0        4.484090   -0.010602    1.968931
     25          1           0        4.319990   -0.932282    0.459311
     26          6           0        1.795711    0.701000    2.178381
     27          1           0        0.712021    0.612780    2.188341
     28          1           0        2.140861    0.660349    3.217641
     29          1           0        2.070701    1.675719    1.779891
     30          6           0        0.675149   -2.016830    1.565431
     31          1           0        0.348189   -3.043720    1.470881
     32          1           0       -0.035040   -1.337040    2.014951
     33          8           0        3.388391    1.902419   -1.741099
     34          1           0        2.597581    1.515299   -1.338559
     35          1           0        3.838991    1.124959   -2.087979
     36          8           0        3.406250   -1.154001   -2.139769
     37          1           0        3.021760   -1.332531   -2.999859
     38          1           0        2.671630   -0.812641   -1.592629
 ---------------------------------------------------------------------

 SCF Done:  E(RwB97XD) =  -1268.94802972     A.U. after   16 cycles

 The electronic state is 1-A.
 Alpha  occ. eigenvalues -- -101.70025 -19.23377 -19.23287 -19.21917 -10.35956
 Alpha  occ. eigenvalues --  -10.35082 -10.34893 -10.32878 -10.31353 -10.30211
 Alpha  occ. eigenvalues --  -10.30091 -10.29773 -10.29555 -10.29325 -10.29209
 Alpha  occ. eigenvalues --  -10.29157 -10.29037 -10.28963 -10.28265  -9.58564
 Alpha  occ. eigenvalues --   -7.33196  -7.32357  -7.32330  -1.12425  -1.09368
 Alpha  occ. eigenvalues --   -1.08090  -1.00160  -0.95939  -0.95111  -0.91836
 Alpha  occ. eigenvalues --   -0.86741  -0.86118  -0.85223  -0.81008  -0.80149
 Alpha  occ. eigenvalues --   -0.73835  -0.72669  -0.72322  -0.67369  -0.63455
 Alpha  occ. eigenvalues --   -0.62041  -0.61335  -0.60455  -0.59107  -0.58360
 Alpha  occ. eigenvalues --   -0.58074  -0.56195  -0.55722  -0.54918  -0.52973
 Alpha  occ. eigenvalues --   -0.52019  -0.51877  -0.50894  -0.50263  -0.49599
 Alpha  occ. eigenvalues --   -0.48411  -0.47922  -0.47522  -0.46975  -0.46466
 Alpha  occ. eigenvalues --   -0.45992  -0.45162  -0.44903  -0.44577  -0.44123
 Alpha  occ. eigenvalues --   -0.42614  -0.39863  -0.39150  -0.38846  -0.38137
 Alpha  occ. eigenvalues --   -0.37303  -0.35283  -0.34685  -0.32510  -0.27507
 Alpha virt. eigenvalues --   -0.03460   0.01813   0.03872   0.04115   0.04764
 Alpha virt. eigenvalues --    0.05241   0.05935   0.06339   0.06537   0.07387
 Alpha virt. eigenvalues --    0.07507   0.07738   0.08396   0.08843   0.09030

 Mulliken charges:
               1
     1  C   -0.019487
     2  C   -0.194459
     3  C   -0.016478
     4  C   -0.131466
     5  C   -0.093821
     6  C   -0.016378
     7  H    0.163311
     8  H    0.172637
     9  H    0.192441
    10  H    0.162625
    11  C    0.089342
    12  C    0.037638
    13  C   -0.294772
    14  H    0.201102
    15  C    0.014825
    16  H    0.179349
    17  O   -0.861452
    18  Cl  -0.174897
    19  C    0.239315
    20  C    0.029905
    21  H    0.175889
    22  C   -0.500642
    23  H    0.191846
    24  H    0.173799
    25  H    0.175331
    26  C   -0.560578
    27  H    0.164733
    28  H    0.184515
    29  H    0.185588
    30  C   -0.288618
    31  H    0.191934
    32  H    0.215401
    33  O   -0.628332
    34  H    0.349293
    35  H    0.352495
    36  O   -0.670442
    37  H    0.354472
    38  H    0.254033
 Sum of Mulliken charges =   0.00000

 Dipole moment (field-independent basis, Debye):
    X=             -0.7608    Y=             -2.5682    Z=              4.4221  Tot=              5.1701
 Quadrupole moment (field-independent basis, Debye-Ang):
   XX=           -135.8781   YY=           -115.4906   ZZ=           -117.8988
   XY=            -11.9090   XZ=             10.8953   YZ=              7.2262

  Exact polarizability: 364.005 -10.821 285.639  35.234   4.623 197.433
 Approx polarizability: 314.983   2.073 277.059  17.108   6.828 203.031

 ******    1 imaginary frequencies (negative Signs) ******

                      1                      2                      3
                      A                      A                      A
 Frequencies --   -229.0918                29.8372                42.9900
 Red. masses --      7.0186                 6.3887                 5.3341
 Frc consts  --      0.2170                 0.0034                 0.0058
 IR Inten    --     94.8281                 2.2075                 0.7213

                      4                      5                      6
                      A                      A                      A
 Frequencies --     56.3620                59.2049                64.6172
 Red. masses --      7.6302                 6.9068                 4.0213
 Frc consts  --      0.0143                 0.0143                 0.0099
 IR Inten    --      6.1414                 8.9852                 0.8277

                      7                      8                      9
                      A                      A                      A
 Frequencies --     80.4480                89.2618               130.4003
 Red. masses --      5.4337                 5.2182                 4.3725
 Frc consts  --      0.0207                 0.0245                 0.0438
 IR Inten    --      6.3825                 1.1539                 0.8963

                     10                     11                     12
                      A                      A                      A
 Frequencies --    150.2086               158.3180               166.3679
 Red. masses --      4.6058                 4.1785                 2.3987
 Frc consts  --      0.0612                 0.0617                 0.0391
 IR Inten    --     12.6265                 3.0580                20.8222

                     13                     14                     15
                      A                      A                      A
 Frequencies --    176.4311               189.5903               197.7493
 Red. masses --      3.0957                 1.1526                 2.5354
 Frc consts  --      0.0568                 0.0244                 0.0584
 IR Inten    --     21.3393                66.1450                24.1755

                     16                     17                     18
                      A                      A                      A
 Frequencies --    203.8481               218.7938               250.4258
 Red. masses --      1.7108                 6.6371                 1.5940
 Frc consts  --      0.0419                 0.1872                 0.0589
 IR Inten    --     16.2405                10.1956                12.7272

                     19                     20                     21
                      A                      A                      A
 Frequencies --    264.6525               308.4597               342.2929
 Red. masses --      3.1188                 2.6500                 2.9899
 Frc consts  --      0.1287                 0.1486                 0.2064
 IR Inten    --     17.2773                15.0877                 7.0936

                     22                     23                     24
                      A                      A                      A
 Frequencies --    352.0047               357.2507               366.2923
 Red. masses --      1.2463                 4.4678                 3.1234
 Frc consts  --      0.0910                 0.3360                 0.2469
 IR Inten    --     42.8605                 9.7522                21.9389

                     25                     26                     27
                      A                      A                      A
 Frequencies --    396.1775               416.6729               422.7693
 Red. masses --      7.5002                 1.2096                 1.9587
 Frc consts  --      0.6936                 0.1237                 0.2063
 IR Inten    --      3.9712                41.8658                21.0373

                     28                     29                     30
                      A                      A                      A
 Frequencies --    432.8268               450.7718               466.1017
 Red. masses --      2.3790                 1.0857                 2.1386
 Frc consts  --      0.2626                 0.1300                 0.2737
 IR Inten    --      6.4648                93.8058                 9.8427

                     31                     32                     33
                      A                      A                      A
 Frequencies --    488.5410               499.5590               538.4070
 Red. masses --      3.5726                 7.5147                 5.8744
 Frc consts  --      0.5024                 1.1049                 1.0033
 IR Inten    --      2.8034                 5.5532                 5.1467

                     34                     35                     36
                      A                      A                      A
 Frequencies --    541.8696               594.6666               611.9276
 Red. masses --      2.7970                 4.9916                 1.3921
 Frc consts  --      0.4839                 1.0400                 0.3071
 IR Inten    --      1.3434                15.1415                94.5571

                     37                     38                     39
                      A                      A                      A
 Frequencies --    620.7920               671.2534               707.6094
 Red. masses --      1.8918                 6.8217                 3.1941
 Frc consts  --      0.4296                 1.8110                 0.9423
 IR Inten    --     70.8129                32.9838                13.4331

                     40                     41                     42
                      A                      A                      A
 Frequencies --    728.6444               754.9252               785.1747
 Red. masses --      1.3512                 4.5094                 1.1378
 Frc consts  --      0.4227                 1.5142                 0.4133
 IR Inten    --     24.4998                27.7866                80.5654

                     43                     44                     45
                      A                      A                      A
 Frequencies --    792.8998               793.6004               805.6926
 Red. masses --      1.5591                 2.8067                 4.7050
 Frc consts  --      0.5775                 1.0415                 1.7995
 IR Inten    --     80.5574                 2.5362                 7.0900

                     46                     47                     48
                      A                      A                      A
 Frequencies --    825.7153               887.0301               907.2057
 Red. masses --      2.7596                 1.2653                 1.7652
 Frc consts  --      1.1086                 0.5866                 0.8559
 IR Inten    --      4.4266               131.7352                 0.9387

                     49                     50                     51
                      A                      A                      A
 Frequencies --    924.9984               949.8810               972.7568
 Red. masses --      1.2530                 1.2980                 5.4185
 Frc consts  --      0.6317                 0.6900                 3.0209
 IR Inten    --      1.5634                57.0403                32.0209

                     52                     53                     54
                      A                      A                      A
 Frequencies --    990.4159               999.1560              1006.3000
 Red. masses --      1.2880                 1.3634                 1.3126
 Frc consts  --      0.7444                 0.8019                 0.7832
 IR Inten    --      7.5951                 2.4227                 6.8420

                     55                     56                     57
                      A                      A                      A
 Frequencies --   1026.8720              1027.9893              1036.0025
 Red. masses --      1.3242                 1.2830                 1.3481
 Frc consts  --      0.8227                 0.7988                 0.8525
 IR Inten    --      2.2464                12.2769                22.9639

                     58                     59                     60
                      A                      A                      A
 Frequencies --   1059.8631              1081.8171              1093.5196
 Red. masses --      2.3731                 1.6712                 2.2318
 Frc consts  --      1.5706                 1.1524                 1.5724
 IR Inten    --     28.4777               127.9971                22.9242

                     61                     62                     63
                      A                      A                      A
 Frequencies --   1097.8867              1153.2360              1174.9773
 Red. masses --      1.5109                 1.9266                 1.2675
 Frc consts  --      1.0730                 1.5097                 1.0310
 IR Inten    --      9.6067                14.7667                10.6993

                     64                     65                     66
                      A                      A                      A
 Frequencies --   1186.1123              1224.9762              1268.5263
 Red. masses --      1.5608                 1.6715                 1.7526
 Frc consts  --      1.2938                 1.4778                 1.6616
 IR Inten    --      4.5545                28.5382                13.7748

                     67                     68                     69
                      A                      A                      A
 Frequencies --   1272.5135              1309.4245              1330.5457
 Red. masses --      2.3782                 1.7721                 3.7120
 Frc consts  --      2.2689                 1.7901                 3.8719
 IR Inten    --     17.5509                43.7422                15.3129

                     70                     71                     72
                      A                      A                      A
 Frequencies --   1360.5202              1370.9261              1401.8129
 Red. masses --      1.9739                 1.4675                 6.5556
 Frc consts  --      2.1527                 1.6250                 7.5900
 IR Inten    --     38.4978                22.6292                12.8481

                     73                     74                     75
                      A                      A                      A
 Frequencies --   1411.8531              1421.0963              1432.2702
 Red. masses --      1.2341                 1.6240                 2.5126
 Frc consts  --      1.4494                 1.9324                 3.0368
 IR Inten    --     20.5989                51.3951                15.1181

                     76                     77                     78
                      A                      A                      A
 Frequencies --   1455.4775              1463.8370              1482.5438
 Red. masses --      1.1532                 1.1508                 2.2414
 Frc consts  --      1.4393                 1.4529                 2.9025
 IR Inten    --     43.3670                42.2908                61.7163

                     79                     80                     81
                      A                      A                      A
 Frequencies --   1486.1631              1491.0366              1511.8081
 Red. masses --      1.2563                 1.9332                 1.3678
 Frc consts  --      1.6348                 2.5323                 1.8419
 IR Inten    --     24.5344                15.8210               174.9272

                     82                     83                     84
                      A                      A                      A
 Frequencies --   1527.8965              1554.2760              1595.8334
 Red. masses --      1.6510                 3.1131                 3.4333
 Frc consts  --      2.2709                 4.4310                 5.1515
 IR Inten    --     70.9770                43.5378               121.3478

                     85                     86                     87
                      A                      A                      A
 Frequencies --   1640.2302              1654.2508              1658.4227
 Red. masses --      4.4223                 5.6771                 1.1099
 Frc consts  --      7.0098                 9.1533                 1.7985
 IR Inten    --    268.8487                31.6399                81.3646

                     88                     89                     90
                      A                      A                      A
 Frequencies --   1686.9359              1687.9222              3048.9341
 Red. masses --      1.0999                 6.2024                 1.0450
 Frc consts  --      1.8442                10.4116                 5.7236
 IR Inten    --    101.1458                 8.0554                 3.5662

                     91                     92                     93
                      A                      A                      A
 Frequencies --   3055.6326              3123.1463              3141.6380
 Red. masses --      1.0496                 1.0908                 1.0837
 Frc consts  --      5.7739                 6.2689                 6.3022
 IR Inten    --     12.5862                 1.1445                 3.6263

                     94                     95                     96
                      A                      A                      A
 Frequencies --   3174.1473              3187.4208              3191.1785
 Red. masses --      1.1033                 1.0935                 1.0851
 Frc consts  --      6.5491                 6.5455                 6.5104
 IR Inten    --      6.5192                 3.1716                18.8468

                     97                     98                     99
                      A                      A                      A
 Frequencies --   3198.2016              3206.9030              3221.5913
 Red. masses --      1.0737                 1.0876                 1.0898
 Frc consts  --      6.4708                 6.5903                 6.6639
 IR Inten    --      4.8753                 6.1674                 5.7593

                    100                    101                    102
                      A                      A                      A
 Frequencies --   3223.4062              3235.3046              3237.8562
 Red. masses --      1.0906                 1.0938                 1.0931
 Frc consts  --      6.6765                 6.7457                 6.7517
 IR Inten    --      7.3212                 3.5848                 4.1788

                    103                    104                    105
                      A                      A                      A
 Frequencies --   3242.5106              3286.3219              3530.4596
 Red. masses --      1.0951                 1.1167                 1.0630
 Frc consts  --      6.7835                 7.1057                 7.8061
 IR Inten    --     10.7864                 0.7372               931.8828

                    106                    107                    108
                      A                      A                      A
 Frequencies --   3738.1809              3848.6241              3910.9856
 Red. masses --      1.0546                 1.0718                 1.0677
 Frc consts  --      8.6825                 9.3539                 9.6217
 IR Inten    --    473.5005               180.4320                91.3118

 - Thermochemistry -
 -------------------
 Temperature   298.150 Kelvin.  Pressure   1.00000 Atm.
 Atom     1 has atomic number  6 and mass  12.00000

 Molecular mass:   282.10227 amu.
 Principal axes and moments of inertia in atomic units:
                           1         2         3
     Eigenvalues --  3716.386387912.021629174.95665
           X            0.99983  -0.01835  -0.00007
           Y            0.01835   0.99972   0.01475
           Z           -0.00020  -0.01475   0.99989
 This molecule is an asymmetric top.
 Rotational symmetry number  1.
 Warning -- assumption of classical behavior for rotation
           may cause significant error
 Rotational temperatures (Kelvin)      0.02331     0.01095     0.00944
 Rotational constants (GHZ):           0.48562     0.22810     0.19670
    1 imaginary frequencies ignored.
 Zero-point vibrational energy     811558.4 (Joules/Mol)
                                  193.96711 (Kcal/Mol)
 Warning -- explicit consideration of  35 degrees of freedom as
           vibrations may cause significant error
 Vibrational temperatures:     42.93    61.85    81.09    85.18    92.97
          (Kelvin)            115.75   128.43   187.62   216.12   227.78
                              239.37   253.84   272.78   284.52   293.29
                              314.80   360.31   380.78   443.80   492.48
                              506.46   514.00   527.01   570.01   599.50
                              608.27   622.74   648.56   670.62   702.90
                              718.75   774.65   779.63   855.59   880.43
                              893.18   965.78  1018.09  1048.36  1086.17
                             1129.69  1140.80  1141.81  1159.21  1188.02
                             1276.24  1305.27  1330.86  1366.67  1399.58
                             1424.99  1437.56  1447.84  1477.44  1479.05
                             1490.57  1524.90  1556.49  1573.33  1579.61
                             1659.25  1690.53  1706.55  1762.47  1825.12
                             1830.86  1883.97  1914.36  1957.48  1972.45
                             2016.89  2031.34  2044.64  2060.71  2094.10
                             2106.13  2133.05  2138.25  2145.27  2175.15
                             2198.30  2236.25  2296.05  2359.92  2380.09
                             2386.10  2427.12  2428.54  4386.73  4396.37
                             4493.51  4520.11  4566.88  4585.98  4591.39
                             4601.49  4614.01  4635.15  4637.76  4654.88
                             4658.55  4665.24  4728.28  5079.54  5378.40
                             5537.30  5627.03

 Zero-point correction=                           0.309106 (Hartree/Particle)
 Thermal correction to Energy=                    0.330416
 Thermal correction to Enthalpy=                  0.331360
 Thermal correction to Gibbs Free Energy=         0.258887
 Sum of electronic and zero-point Energies=          -1268.638923
 Sum of electronic and thermal Energies=             -1268.617614
 Sum of electronic and thermal Enthalpies=           -1268.616670
 Sum of electronic and thermal Free Energies=        -1268.689142

                     E (Thermal)             CV                S
                      KCal/Mol        Cal/Mol-Kelvin    Cal/Mol-Kelvin
 Total                  207.339             79.407            152.532
 Electronic               0.000              0.000              0.000
 Translational            0.889              2.981             42.809
 Rotational               0.889              2.981             33.955
 Vibrational            205.562             73.445             75.767
 Vibration     1          0.594              1.984              5.840
 Vibration     2          0.595              1.980              5.116
 Vibration     3          0.596              1.975              4.581
 Vibration     4          0.597              1.974              4.484
 Vibration     5          0.597              1.971              4.311
 Vibration     6          0.600              1.962              3.880
 Vibration     7          0.602              1.957              3.676
 Vibration     8          0.612              1.923              2.940
 Vibration     9          0.618              1.902              2.670
 Vibration    10          0.621              1.893              2.570
 Vibration    11          0.624              1.884              2.476
 Vibration    12          0.628              1.871              2.366
 Vibration    13          0.633              1.854              2.232
 Vibration    14          0.637              1.843              2.154
 Vibration    15          0.640              1.834              2.098
 Vibration    16          0.647              1.812              1.969
 Vibration    17          0.663              1.762              1.728
 Vibration    18          0.671              1.738              1.631
 Vibration    19          0.698              1.658              1.371
 Vibration    20          0.721              1.591              1.201
 Vibration    21          0.729              1.571              1.157
 Vibration    22          0.732              1.560              1.134
 Vibration    23          0.739              1.542              1.095
 Vibration    24          0.763              1.478              0.977
 Vibration    25          0.780              1.434              0.903
 Vibration    26          0.785              1.421              0.883
 Vibration    27          0.794              1.399              0.849
 Vibration    28          0.810              1.359              0.793
 Vibration    29          0.823              1.325              0.749
 Vibration    30          0.844              1.275              0.687
 Vibration    31          0.855              1.251              0.659
 Vibration    32          0.893              1.165              0.569
 Vibration    33          0.897              1.158              0.561
 Vibration    34          0.952              1.043              0.459
 Vibration    35          0.971              1.007              0.430

 Normal termination of Gaussian 09 at Tue Feb  8 19:12:31 2022.
