 Gaussian 09, Revision D.01,
 Gaussian 09:  ES64L-G09RevD.01 24-Apr-2013

 --------------------------------------------
 #n wB97XD/Gen scrf(smd,solvent=toluene) freq
 --------------------------------------------

 ----------------------------------
 clasisen product in toluene - freq
 ----------------------------------
 Symbolic Z-matrix:
 Charge =  0 Multiplicity = 1

                         Standard orientation:
 ---------------------------------------------------------------------
 Center     Atomic      Atomic             Coordinates (Angstroms)
 Number     Number       Type             X           Y           Z
 ---------------------------------------------------------------------
      1          6           0        4.312410   -0.301579    0.387060
      2          6           0        3.349689    0.675611    0.204330
      3          6           0        2.022789    0.327890   -0.034660
      4          6           0        1.682900   -1.034170   -0.091580
      5          6           0        2.661790   -2.005279    0.088150
      6          6           0        3.973600   -1.646469    0.330980
      7          1           0        5.338260   -0.009018    0.573380
      8          1           0        3.632459    1.717781    0.246840
      9          1           0        2.370011   -3.045899    0.032150
     10          1           0        4.730140   -2.407259    0.473300
     11          6           0        0.287440   -1.463070   -0.358150
     12          6           0        0.962729    1.322430   -0.239840
     13          6           0       -0.799750   -0.409241   -0.372780
     14          6           0       -0.313031    0.999730   -0.409570
     15          1           0       -1.056431    1.773349   -0.553830
     16          8           0        0.003120   -2.627640   -0.537360
     17         17           0        1.418889    3.008350   -0.260930
     18          6           0       -4.103670   -0.012562    0.224320
     19          6           0       -2.947201    0.242119    0.835450
     20          1           0       -2.849521    1.188949    1.358960
     21          6           0       -5.241601    0.964978    0.272450
     22          1           0       -6.122931    0.509998    0.734450
     23          1           0       -4.986451    1.863628    0.834960
     24          1           0       -5.537591    1.264228   -0.737680
     25          6           0       -4.386420   -1.260782   -0.558940
     26          1           0       -3.569270   -1.980181   -0.544050
     27          1           0       -5.281970   -1.756512   -0.173270
     28          1           0       -4.594370   -1.012662   -1.604200
     29          6           0       -1.735700   -0.643651    0.848730
     30          1           0       -1.161580   -0.465391    1.761330
     31          1           0       -2.010930   -1.698181    0.843390
     32          1           0       -1.401740   -0.599401   -1.266760
 ---------------------------------------------------------------------

 SCF Done:  E(RwB97XD) =  -1116.08858659     A.U. after   15 cycles

 The electronic state is 1-A.
 Alpha  occ. eigenvalues -- -101.70231 -19.23897 -10.37816 -10.35624 -10.32351
 Alpha  occ. eigenvalues --  -10.30770 -10.30598 -10.30370 -10.30203 -10.29951
 Alpha  occ. eigenvalues --  -10.29805 -10.29649 -10.29192 -10.29170 -10.27290
 Alpha  occ. eigenvalues --  -10.27228 -10.27190  -9.58776  -7.33412  -7.32566
 Alpha  occ. eigenvalues --   -7.32539  -1.15079  -1.00538  -0.96627  -0.93670
 Alpha  occ. eigenvalues --   -0.91017  -0.87396  -0.86634  -0.83466  -0.79565
 Alpha  occ. eigenvalues --   -0.78878  -0.74377  -0.72970  -0.71076  -0.67560
 Alpha  occ. eigenvalues --   -0.62531  -0.61513  -0.59823  -0.59065  -0.56900
 Alpha  occ. eigenvalues --   -0.55000  -0.54104  -0.53392  -0.52796  -0.52442
 Alpha  occ. eigenvalues --   -0.51889  -0.51265  -0.50100  -0.49069  -0.48088
 Alpha  occ. eigenvalues --   -0.46868  -0.46682  -0.45608  -0.45125  -0.44800
 Alpha  occ. eigenvalues --   -0.43933  -0.43331  -0.42810  -0.40910  -0.39984
 Alpha  occ. eigenvalues --   -0.37265  -0.34517  -0.34239  -0.32049  -0.30695
 Alpha virt. eigenvalues --   -0.01022   0.02267   0.04259   0.04790   0.05555
 Alpha virt. eigenvalues --    0.06115   0.06180   0.06468   0.07365   0.07674
 Alpha virt. eigenvalues --    0.08022   0.08139   0.08520   0.08970   0.09557

 Mulliken charges:
               1
     1  C   -0.053236
     2  C   -0.172956
     3  C    0.100918
     4  C   -0.064868
     5  C   -0.107014
     6  C   -0.090493
     7  H    0.166123
     8  H    0.180491
     9  H    0.188293
    10  H    0.164999
    11  C    0.066347
    12  C    0.128505
    13  C    0.046656
    14  C   -0.208358
    15  H    0.211929
    16  O   -0.454352
    17  Cl  -0.179014
    18  C    0.152607
    19  C   -0.341496
    20  H    0.168698
    21  C   -0.421584
    22  H    0.146363
    23  H    0.135790
    24  H    0.139983
    25  C   -0.434426
    26  H    0.150803
    27  H    0.144708
    28  H    0.156920
    29  C   -0.409694
    30  H    0.155927
    31  H    0.181786
    32  H    0.149646
 Sum of Mulliken charges =   0.00000

 Dipole moment (field-independent basis, Debye):
    X=             -0.0660    Y=              0.8831    Z=              0.5269  Tot=              1.0304
 Quadrupole moment (field-independent basis, Debye-Ang):
   XX=            -86.5464   YY=           -115.9898   ZZ=           -109.5704
   XY=             -4.4206   XZ=              4.1292   YZ=             -1.5631

  Exact polarizability: 313.160   0.034 231.784  23.119   3.764 141.541
 Approx polarizability: 256.551   7.897 227.627  20.941   4.274 155.328

                      1                      2                      3
                      A                      A                      A
 Frequencies --     27.3676                43.0070                71.5094
 Red. masses --      5.3870                 4.7618                 3.6088
 Frc consts  --      0.0024                 0.0052                 0.0109
 IR Inten    --      1.5649                 0.8726                 0.4013

                      4                      5                      6
                      A                      A                      A
 Frequencies --     87.9106               111.6436               115.0540
 Red. masses --      3.2920                 4.7943                 4.2841
 Frc consts  --      0.0150                 0.0352                 0.0334
 IR Inten    --      0.1147                 0.1574                 1.5349

                      7                      8                      9
                      A                      A                      A
 Frequencies --    177.9474               182.1075               209.7918
 Red. masses --      1.6428                 1.6775                 3.3758
 Frc consts  --      0.0306                 0.0328                 0.0875
 IR Inten    --      0.9803                 0.8373                 5.3068

                     10                     11                     12
                      A                      A                      A
 Frequencies --    216.4971               226.0060               296.8660
 Red. masses --      1.5890                 3.7591                 3.0223
 Frc consts  --      0.0439                 0.1131                 0.1569
 IR Inten    --      0.5678                 0.9633                 0.7002

                     13                     14                     15
                      A                      A                      A
 Frequencies --    320.8217               336.8281               370.0161
 Red. masses --      3.2798                 5.5810                10.2972
 Frc consts  --      0.1989                 0.3731                 0.8306
 IR Inten    --      5.7826                 9.6410                 0.1574

                     16                     17                     18
                      A                      A                      A
 Frequencies --    401.1281               416.6359               435.8714
 Red. masses --      2.7960                 3.4203                 3.0019
 Frc consts  --      0.2651                 0.3498                 0.3360
 IR Inten    --      2.2698                 4.9685                 0.8291

                     19                     20                     21
                      A                      A                      A
 Frequencies --    459.7781               481.3417               500.5353
 Red. masses --      3.7083                 4.3768                 2.5957
 Frc consts  --      0.4619                 0.5975                 0.3832
 IR Inten    --      4.3866                 1.8976                 1.3948

                     22                     23                     24
                      A                      A                      A
 Frequencies --    539.0127               557.0924               618.6038
 Red. masses --      5.3322                 3.0901                 3.4589
 Frc consts  --      0.9128                 0.5650                 0.7798
 IR Inten    --     10.2678                10.1028                 5.1650

                     25                     26                     27
                      A                      A                      A
 Frequencies --    635.0854               649.9825               708.9617
 Red. masses --      3.4410                 6.0262                 4.0205
 Frc consts  --      0.8177                 1.5000                 1.1906
 IR Inten    --      2.9910                20.4109                13.5967

                     28                     29                     30
                      A                      A                      A
 Frequencies --    732.2316               785.7378               787.1872
 Red. masses --      4.8175                 3.3156                 2.9497
 Frc consts  --      1.5219                 1.2061                 1.0769
 IR Inten    --     12.9351                 9.9397                 4.1524

                     31                     32                     33
                      A                      A                      A
 Frequencies --    804.7892               836.0778               873.6667
 Red. masses --      1.6606                 3.1599                 1.6682
 Frc consts  --      0.6337                 1.3014                 0.7502
 IR Inten    --     56.9404                 5.7314                27.9830

                     34                     35                     36
                      A                      A                      A
 Frequencies --    902.5311               917.9861               923.7139
 Red. masses --      1.3671                 1.9740                 1.6131
 Frc consts  --      0.6561                 0.9801                 0.8110
 IR Inten    --     16.4797                17.9745                15.3603

                     37                     38                     39
                      A                      A                      A
 Frequencies --    959.3360               972.8261               993.9099
 Red. masses --      5.1442                 1.4073                 2.1721
 Frc consts  --      2.7894                 0.7847                 1.2642
 IR Inten    --     71.2779                 0.3524                 1.1663

                     40                     41                     42
                      A                      A                      A
 Frequencies --   1010.4783              1026.6344              1039.0854
 Red. masses --      1.4521                 1.2483                 1.3529
 Frc consts  --      0.8736                 0.7752                 0.8606
 IR Inten    --      2.0183                 6.2684                 0.1452

                     43                     44                     45
                      A                      A                      A
 Frequencies --   1056.4577              1059.9109              1081.9986
 Red. masses --      3.2615                 2.7939                 1.9593
 Frc consts  --      2.1448                 1.8492                 1.3515
 IR Inten    --     21.3987                44.8856                 2.0591

                     46                     47                     48
                      A                      A                      A
 Frequencies --   1113.8724              1116.2440              1141.2016
 Red. masses --      2.2976                 1.7477                 1.9212
 Frc consts  --      1.6795                 1.2830                 1.4742
 IR Inten    --     10.1739                 1.8315                12.8643

                     49                     50                     51
                      A                      A                      A
 Frequencies --   1157.0156              1172.5594              1189.2818
 Red. masses --      1.6188                 1.3746                 1.1595
 Frc consts  --      1.2768                 1.1135                 0.9663
 IR Inten    --      3.5940                13.5464                 5.7664

                     52                     53                     54
                      A                      A                      A
 Frequencies --   1219.9690              1254.8908              1270.8608
 Red. masses --      1.8692                 1.8678                 2.1227
 Frc consts  --      1.6391                 1.7330                 2.0199
 IR Inten    --     19.7464                 2.1837                54.1710

                     55                     56                     57
                      A                      A                      A
 Frequencies --   1275.8955              1319.0643              1338.1014
 Red. masses --      1.3720                 2.2203                 1.6925
 Frc consts  --      1.3159                 2.2761                 1.7854
 IR Inten    --      0.8387               116.1065                 2.0541

                     58                     59                     60
                      A                      A                      A
 Frequencies --   1342.0286              1371.5482              1382.6671
 Red. masses --      2.5605                 1.8532                 1.7505
 Frc consts  --      2.7170                 2.0540                 1.9718
 IR Inten    --     13.8244                50.5454                28.9534

                     61                     62                     63
                      A                      A                      A
 Frequencies --   1393.0850              1417.0944              1434.2517
 Red. masses --      1.3978                 1.3341                 1.3762
 Frc consts  --      1.5983                 1.5784                 1.6680
 IR Inten    --      4.6411                 6.0076                14.3176

                     64                     65                     66
                      A                      A                      A
 Frequencies --   1470.3395              1479.9691              1490.3615
 Red. masses --      1.0465                 1.0552                 1.0738
 Frc consts  --      1.3329                 1.3617                 1.4053
 IR Inten    --      2.0542                 5.8256                17.2247

                     67                     68                     69
                      A                      A                      A
 Frequencies --   1496.2422              1500.5007              1508.0547
 Red. masses --      1.0651                 2.4136                 1.0888
 Frc consts  --      1.4049                 3.2018                 1.4589
 IR Inten    --     14.1871                22.4186                 9.9914

                     70                     71                     72
                      A                      A                      A
 Frequencies --   1525.6967              1640.8350              1672.0830
 Red. masses --      2.8338                 6.3445                 6.2296
 Frc consts  --      3.8865                10.0642                10.2619
 IR Inten    --     13.7374                 0.9283                76.9159

                     73                     74                     75
                      A                      A                      A
 Frequencies --   1728.2312              1759.9058              1782.4323
 Red. masses --      8.4905                 6.8282                12.3617
 Frc consts  --     14.9413                12.4605                23.1396
 IR Inten    --     34.1912                14.5568               286.8823

                     76                     77                     78
                      A                      A                      A
 Frequencies --   3042.0624              3048.5120              3064.6183
 Red. masses --      1.0377                 1.0413                 1.0774
 Frc consts  --      5.6579                 5.7014                 5.9621
 IR Inten    --     34.6153                44.9963                 3.0212

                     79                     80                     81
                      A                      A                      A
 Frequencies --   3076.0470              3098.3427              3100.7801
 Red. masses --      1.0678                 1.1000                 1.0991
 Frc consts  --      5.9527                 6.2219                 6.2261
 IR Inten    --     16.3399                 6.7990                32.9630

                     82                     83                     84
                      A                      A                      A
 Frequencies --   3128.1250              3135.5433              3157.1951
 Red. masses --      1.1011                 1.1017                 1.0977
 Frc consts  --      6.3481                 6.3819                 6.4469
 IR Inten    --     12.0776                25.2093                20.2775

                     85                     86                     87
                      A                      A                      A
 Frequencies --   3169.1579              3205.6244              3210.7379
 Red. masses --      1.0896                 1.0875                 1.0923
 Frc consts  --      6.4479                 6.5843                 6.6346
 IR Inten    --     23.0084                 2.1248                 1.2516

                     88                     89                     90
                      A                      A                      A
 Frequencies --   3220.7627              3231.3184              3241.0004
 Red. masses --      1.0918                 1.0945                 1.0942
 Frc consts  --      6.6726                 6.7333                 6.7717
 IR Inten    --      7.5024                 7.4363                 4.0496

 - Thermochemistry -
 -------------------
 Temperature   298.150 Kelvin.  Pressure   1.00000 Atm.
 Atom     1 has atomic number  6 and mass  12.00000

 Molecular mass:   246.08114 amu.
 Principal axes and moments of inertia in atomic units:
                           1         2         3
     Eigenvalues --  2557.678597151.207439338.18283
           X            0.99993  -0.01139   0.00353
           Y            0.01137   0.99992   0.00483
           Z           -0.00358  -0.00479   0.99998
 This molecule is an asymmetric top.
 Rotational symmetry number  1.
 Warning -- assumption of classical behavior for rotation
           may cause significant error
 Rotational temperatures (Kelvin)      0.03386     0.01211     0.00928
 Rotational constants (GHZ):           0.70562     0.25237     0.19326
 Zero-point vibrational energy     688188.1 (Joules/Mol)
                                  164.48091 (Kcal/Mol)
 Warning -- explicit consideration of  24 degrees of freedom as
           vibrations may cause significant error
 Vibrational temperatures:     39.38    61.88   102.89   126.48   160.63
          (Kelvin)            165.54   256.03   262.01   301.84   311.49
                              325.17   427.12   461.59   484.62   532.37
                              577.13   599.45   627.12   661.52   692.54
                              720.16   775.52   801.53   890.03   913.75
                              935.18  1020.04  1053.52  1130.50  1132.59
                             1157.91  1202.93  1257.01  1298.54  1320.78
                             1329.02  1380.27  1399.68  1430.01  1453.85
                             1477.10  1495.01  1520.01  1524.97  1556.75
                             1602.61  1606.02  1641.93  1664.69  1687.05
                             1711.11  1755.26  1805.51  1828.48  1835.73
                             1897.84  1925.23  1930.88  1973.35  1989.35
                             2004.34  2038.88  2063.57  2115.49  2129.34
                             2144.30  2152.76  2158.88  2169.75  2195.13
                             2360.79  2405.75  2486.54  2532.11  2564.52
                             4376.84  4386.12  4409.30  4425.74  4457.82
                             4461.33  4500.67  4511.34  4542.49  4559.71
                             4612.17  4619.53  4633.95  4649.14  4663.07

 Zero-point correction=                           0.262117 (Hartree/Particle)
 Thermal correction to Energy=                    0.277706
 Thermal correction to Enthalpy=                  0.278650
 Thermal correction to Gibbs Free Energy=         0.218092
 Sum of electronic and zero-point Energies=          -1115.826470
 Sum of electronic and thermal Energies=             -1115.810881
 Sum of electronic and thermal Enthalpies=           -1115.809937
 Sum of electronic and thermal Free Energies=        -1115.870495

                     E (Thermal)             CV                S
                      KCal/Mol        Cal/Mol-Kelvin    Cal/Mol-Kelvin
 Total                  174.263             59.811            127.456
 Electronic               0.000              0.000              0.000
 Translational            0.889              2.981             42.402
 Rotational               0.889              2.981             33.501
 Vibrational            172.486             53.850             51.552
 Vibration     1          0.593              1.984              6.012
 Vibration     2          0.595              1.980              5.116
 Vibration     3          0.598              1.968              4.111
 Vibration     4          0.601              1.958              3.706
 Vibration     5          0.607              1.940              3.240
 Vibration     6          0.608              1.937              3.182
 Vibration     7          0.628              1.869              2.350
 Vibration     8          0.630              1.864              2.307
 Vibration     9          0.642              1.826              2.045
 Vibration    10          0.645              1.816              1.988
 Vibration    11          0.650              1.801              1.910
 Vibration    12          0.691              1.680              1.435
 Vibration    13          0.706              1.634              1.306
 Vibration    14          0.718              1.602              1.227
 Vibration    15          0.742              1.534              1.080
 Vibration    16          0.767              1.468              0.959
 Vibration    17          0.780              1.434              0.903
 Vibration    18          0.796              1.392              0.840
 Vibration    19          0.818              1.339              0.767
 Vibration    20          0.838              1.291              0.706
 Vibration    21          0.856              1.249              0.657
 Vibration    22          0.894              1.164              0.567
 Vibration    23          0.913              1.124              0.530
 Vibration    24          0.978              0.993              0.419

 Normal termination of Gaussian 09 at Mon Feb  7 19:40:56 2022.
