 Gaussian 09, Revision D.01,
 Gaussian 09:  ES64L-G09RevD.01 24-Apr-2013

 -------------------------------------------
 #n wB97XD/Gen scrf(smd,solvent=toluene) opt
 -------------------------------------------

 ---------------------------------
 clasisen product in toluene - opt
 ---------------------------------
 Symbolic Z-matrix:
 Charge =  0 Multiplicity = 1

 SCF Done:  E(RwB97XD) =  -1116.08649705     A.U. after   15 cycles
 SCF Done:  E(RwB97XD) =  -1116.08804438     A.U. after   13 cycles
 SCF Done:  E(RwB97XD) =  -1116.08792767     A.U. after   12 cycles
 SCF Done:  E(RwB97XD) =  -1116.08826418     A.U. after   12 cycles
 SCF Done:  E(RwB97XD) =  -1116.08843878     A.U. after   13 cycles
 SCF Done:  E(RwB97XD) =  -1116.08848678     A.U. after   13 cycles
 SCF Done:  E(RwB97XD) =  -1116.08854775     A.U. after   13 cycles
 SCF Done:  E(RwB97XD) =  -1116.08858382     A.U. after   12 cycles
 SCF Done:  E(RwB97XD) =  -1116.08858510     A.U. after   10 cycles
 SCF Done:  E(RwB97XD) =  -1116.08858646     A.U. after   10 cycles
 SCF Done:  E(RwB97XD) =  -1116.08858659     A.U. after   10 cycles
 Optimization completed.
    -- Stationary point found.

                         Standard orientation:
 ---------------------------------------------------------------------
 Center     Atomic      Atomic             Coordinates (Angstroms)
 Number     Number       Type             X           Y           Z
 ---------------------------------------------------------------------
      1          6           0        4.312409   -0.301581    0.387058
      2          6           0        3.349690    0.675615    0.204331
      3          6           0        2.022786    0.327892   -0.034659
      4          6           0        1.682896   -1.034165   -0.091578
      5          6           0        2.661788   -2.005284    0.088147
      6          6           0        3.973598   -1.646474    0.330982
      7          1           0        5.338259   -0.009022    0.573384
      8          1           0        3.632462    1.717780    0.246839
      9          1           0        2.370008   -3.045901    0.032153
     10          1           0        4.730136   -2.407257    0.473304
     11          6           0        0.287440   -1.463065   -0.358152
     12          6           0        0.962727    1.322432   -0.239844
     13          6           0       -0.799751   -0.409243   -0.372776
     14          6           0       -0.313030    0.999727   -0.409570
     15          1           0       -1.056426    1.773350   -0.553831
     16          8           0        0.003117   -2.627636   -0.537359
     17         17           0        1.418892    3.008347   -0.260931
     18          6           0       -4.103667   -0.012564    0.224324
     19          6           0       -2.947201    0.242116    0.835452
     20          1           0       -2.849516    1.188952    1.358958
     21          6           0       -5.241601    0.964981    0.272450
     22          1           0       -6.122929    0.510000    0.734445
     23          1           0       -4.986453    1.863632    0.834955
     24          1           0       -5.537592    1.264226   -0.737677
     25          6           0       -4.386418   -1.260780   -0.558941
     26          1           0       -3.569265   -1.980184   -0.544047
     27          1           0       -5.281973   -1.756507   -0.173273
     28          1           0       -4.594371   -1.012657   -1.604204
     29          6           0       -1.735697   -0.643647    0.848729
     30          1           0       -1.161579   -0.465394    1.761332
     31          1           0       -2.010935   -1.698181    0.843394
     32          1           0       -1.401737   -0.599405   -1.266763
 ---------------------------------------------------------------------

 The electronic state is 1-A.
 Alpha  occ. eigenvalues -- -101.70231 -19.23897 -10.37816 -10.35624 -10.32351
 Alpha  occ. eigenvalues --  -10.30770 -10.30598 -10.30370 -10.30203 -10.29952
 Alpha  occ. eigenvalues --  -10.29805 -10.29649 -10.29192 -10.29169 -10.27290
 Alpha  occ. eigenvalues --  -10.27228 -10.27190  -9.58777  -7.33412  -7.32566
 Alpha  occ. eigenvalues --   -7.32539  -1.15079  -1.00538  -0.96627  -0.93670
 Alpha  occ. eigenvalues --   -0.91017  -0.87396  -0.86634  -0.83466  -0.79565
 Alpha  occ. eigenvalues --   -0.78878  -0.74378  -0.72970  -0.71076  -0.67560
 Alpha  occ. eigenvalues --   -0.62531  -0.61513  -0.59823  -0.59065  -0.56900
 Alpha  occ. eigenvalues --   -0.55000  -0.54104  -0.53392  -0.52796  -0.52442
 Alpha  occ. eigenvalues --   -0.51889  -0.51265  -0.50100  -0.49069  -0.48088
 Alpha  occ. eigenvalues --   -0.46868  -0.46682  -0.45608  -0.45125  -0.44800
 Alpha  occ. eigenvalues --   -0.43933  -0.43332  -0.42810  -0.40910  -0.39984
 Alpha  occ. eigenvalues --   -0.37265  -0.34517  -0.34239  -0.32049  -0.30696
 Alpha virt. eigenvalues --   -0.01022   0.02267   0.04259   0.04790   0.05555
 Alpha virt. eigenvalues --    0.06115   0.06180   0.06468   0.07365   0.07674
 Alpha virt. eigenvalues --    0.08022   0.08139   0.08520   0.08970   0.09557

 Mulliken charges:
               1
     1  C   -0.053239
     2  C   -0.172963
     3  C    0.100921
     4  C   -0.064860
     5  C   -0.107013
     6  C   -0.090494
     7  H    0.166123
     8  H    0.180491
     9  H    0.188294
    10  H    0.165000
    11  C    0.066340
    12  C    0.128506
    13  C    0.046664
    14  C   -0.208359
    15  H    0.211928
    16  O   -0.454354
    17  Cl  -0.179013
    18  C    0.152604
    19  C   -0.341489
    20  H    0.168696
    21  C   -0.421583
    22  H    0.146363
    23  H    0.135790
    24  H    0.139983
    25  C   -0.434425
    26  H    0.150803
    27  H    0.144708
    28  H    0.156920
    29  C   -0.409699
    30  H    0.155928
    31  H    0.181784
    32  H    0.149645
 Sum of Mulliken charges =   0.00000

 Dipole moment (field-independent basis, Debye):
    X=             -0.0660    Y=              0.8831    Z=              0.5269  Tot=              1.0305
 Quadrupole moment (field-independent basis, Debye-Ang):
   XX=            -86.5464   YY=           -115.9897   ZZ=           -109.5705
   XY=             -4.4206   XZ=              4.1293   YZ=             -1.5631

 Normal termination of Gaussian 09 at Fri Feb  4 17:41:03 2022.
