 Gaussian 09, Revision D.01,
 Gaussian 09:  ES64L-G09RevD.01 24-Apr-2013

 ------------------------------------------------
 #n wB97XD/Gen scrf(smd,solvent=toluene) opt test
 ------------------------------------------------

 ---------------------------------------
 starting material claisen toluene - opt
 ---------------------------------------
 Symbolic Z-matrix:
 Charge =  0 Multiplicity = 1

 SCF Done:  E(RwB97XD) =  -1116.07847362     A.U. after   15 cycles
 SCF Done:  E(RwB97XD) =  -1116.07993253     A.U. after   12 cycles
 SCF Done:  E(RwB97XD) =  -1116.07947974     A.U. after   12 cycles
 SCF Done:  E(RwB97XD) =  -1116.08005847     A.U. after    9 cycles
 SCF Done:  E(RwB97XD) =  -1116.07995207     A.U. after   11 cycles
 SCF Done:  E(RwB97XD) =  -1116.08011969     A.U. after   10 cycles
 SCF Done:  E(RwB97XD) =  -1116.08012901     A.U. after   10 cycles
 SCF Done:  E(RwB97XD) =  -1116.08017311     A.U. after   12 cycles
 SCF Done:  E(RwB97XD) =  -1116.08019196     A.U. after   10 cycles
 SCF Done:  E(RwB97XD) =  -1116.08020693     A.U. after   11 cycles
 SCF Done:  E(RwB97XD) =  -1116.08020084     A.U. after   11 cycles
 SCF Done:  E(RwB97XD) =  -1116.08021007     A.U. after   10 cycles
 SCF Done:  E(RwB97XD) =  -1116.08020943     A.U. after    8 cycles
 Optimization completed.
    -- Stationary point found.

                         Standard orientation:
 ---------------------------------------------------------------------
 Center     Atomic      Atomic             Coordinates (Angstroms)
 Number     Number       Type             X           Y           Z
 ---------------------------------------------------------------------
      1          6           0       -2.822429    2.486692    0.157048
      2          6           0       -3.004766    1.136206    0.067900
      3          6           0       -1.899490    0.254631    0.039033
      4          6           0       -0.591116    0.801163    0.104588
      5          6           0       -0.437118    2.203200    0.193206
      6          6           0       -1.525812    3.027780    0.219292
      7          1           0       -3.681329    3.145800    0.178629
      8          1           0       -4.003852    0.726017    0.019431
      9          1           0        0.562391    2.611311    0.242103
     10          1           0       -1.391574    4.099801    0.289429
     11          6           0        0.544692   -0.067088    0.081082
     12          6           0       -2.026839   -1.156124   -0.058924
     13          6           0        0.363911   -1.421703    0.004497
     14          1           0        1.205763   -2.095993    0.019643
     15          6           0       -0.932071   -1.962971   -0.074245
     16          1           0       -1.052673   -3.035659   -0.142841
     17          8           0        1.734439    0.564316    0.180292
     18         17           0       -3.608449   -1.884647   -0.163454
     19          6           0        2.968782    0.051577   -0.349957
     20          6           0        3.584032   -0.992525    0.551262
     21          1           0        4.439016   -1.503182    0.116071
     22          6           0        2.798691   -0.466448   -1.777214
     23          1           0        3.783126   -0.636177   -2.215346
     24          1           0        2.243950   -1.400806   -1.830975
     25          1           0        2.280682    0.278377   -2.383407
     26          6           0        3.881202    1.277376   -0.360696
     27          1           0        3.924297    1.719656    0.634794
     28          1           0        4.893038    0.997188   -0.656719
     29          1           0        3.505961    2.021456   -1.065642
     30          6           0        3.208488   -1.273153    1.787171
     31          1           0        3.735621   -2.014868    2.374624
     32          1           0        2.362764   -0.780125    2.252333
 ---------------------------------------------------------------------

 The electronic state is 1-A.
 Alpha  occ. eigenvalues -- -101.69540 -19.27911 -10.36115 -10.35402 -10.34209
 Alpha  occ. eigenvalues --  -10.30848 -10.30224 -10.29645 -10.28996 -10.28933
 Alpha  occ. eigenvalues --  -10.28849 -10.28821 -10.28733 -10.28586 -10.27787
 Alpha  occ. eigenvalues --  -10.27659 -10.27484  -9.58078  -7.32711  -7.31868
 Alpha  occ. eigenvalues --   -7.31847  -1.17392  -1.00052  -0.95751  -0.93377
 Alpha  occ. eigenvalues --   -0.91229  -0.86133  -0.85078  -0.84970  -0.81396
 Alpha  occ. eigenvalues --   -0.79134  -0.73520  -0.72394  -0.71128  -0.69080
 Alpha  occ. eigenvalues --   -0.64917  -0.61518  -0.60416  -0.59072  -0.57747
 Alpha  occ. eigenvalues --   -0.56468  -0.55331  -0.53308  -0.52381  -0.51906
 Alpha  occ. eigenvalues --   -0.51620  -0.50409  -0.50071  -0.48860  -0.48061
 Alpha  occ. eigenvalues --   -0.47196  -0.46609  -0.45919  -0.45260  -0.44270
 Alpha  occ. eigenvalues --   -0.43418  -0.42669  -0.42307  -0.39981  -0.39399
 Alpha  occ. eigenvalues --   -0.38287  -0.34841  -0.34693  -0.32775  -0.27903
 Alpha virt. eigenvalues --    0.01562   0.04010   0.04105   0.04889   0.05306
 Alpha virt. eigenvalues --    0.05911   0.06198   0.06451   0.06680   0.07594
 Alpha virt. eigenvalues --    0.08282   0.08325   0.08761   0.08931   0.09141

 Mulliken charges:
               1
     1  C   -0.037930
     2  C   -0.189627
     3  C    0.021858
     4  C    0.015948
     5  C   -0.250993
     6  C   -0.017614
     7  H    0.160592
     8  H    0.172038
     9  H    0.191424
    10  H    0.158828
    11  C    0.122956
    12  C    0.104348
    13  C   -0.299042
    14  H    0.215407
    15  C   -0.162421
    16  H    0.174584
    17  O   -0.423273
    18  Cl  -0.183468
    19  C    0.151821
    20  C   -0.098058
    21  H    0.165385
    22  C   -0.446381
    23  H    0.160828
    24  H    0.166124
    25  H    0.169287
    26  C   -0.521219
    27  H    0.163054
    28  H    0.158172
    29  H    0.147497
    30  C   -0.333227
    31  H    0.165102
    32  H    0.177998
 Sum of Mulliken charges =   0.00000

 Dipole moment (field-independent basis, Debye):
    X=              3.5971    Y=              0.5457    Z=             -0.8166  Tot=              3.7288
 Quadrupole moment (field-independent basis, Debye-Ang):
   XX=           -100.5600   YY=           -100.1912   ZZ=           -109.7154
   XY=             -8.0941   XZ=             -3.6709   YZ=             -0.3168

 Normal termination of Gaussian 09 at Wed Feb  2 19:45:02 2022.
