 Gaussian 09, Revision D.01,
 Gaussian 09:  ES64L-G09RevD.01 24-Apr-2013

 --------------------------------------------
 #n wB97XD/Gen scrf(smd,solvent=toluene) freq
 --------------------------------------------

 ----------------------------------------
 starting material claisen toluene - freq
 ----------------------------------------
 Symbolic Z-matrix:
 Charge =  0 Multiplicity = 1

                         Standard orientation:
 ---------------------------------------------------------------------
 Center     Atomic      Atomic             Coordinates (Angstroms)
 Number     Number       Type             X           Y           Z
 ---------------------------------------------------------------------
      1          6           0        2.822427    2.486692   -0.157050
      2          6           0        3.004768    1.136212   -0.067900
      3          6           0        1.899489    0.254631   -0.039030
      4          6           0        0.591119    0.801160   -0.104590
      5          6           0        0.437117    2.203200   -0.193210
      6          6           0        1.525807    3.027781   -0.219290
      7          1           0        3.681327    3.145802   -0.178630
      8          1           0        4.003849    0.726023   -0.019430
      9          1           0       -0.562393    2.611309   -0.242100
     10          1           0        1.391566    4.099800   -0.289430
     11          6           0       -0.544691   -0.067091   -0.081080
     12          6           0        2.026840   -1.156119    0.058920
     13          6           0       -0.363910   -1.421701   -0.004500
     14          1           0       -1.205759   -2.095992   -0.019640
     15          6           0        0.932071   -1.962970    0.074250
     16          1           0        1.052672   -3.035660    0.142840
     17          8           0       -1.734441    0.564318   -0.180290
     18         17           0        3.608451   -1.884648    0.163450
     19          6           0       -2.968781    0.051577    0.349960
     20          6           0       -3.584030   -0.992524   -0.551260
     21          1           0       -4.439020   -1.503184   -0.116070
     22          6           0       -2.798690   -0.466453    1.777210
     23          1           0       -3.783130   -0.636184    2.215350
     24          1           0       -2.243950   -1.400813    1.830980
     25          1           0       -2.280681    0.278377    2.383410
     26          6           0       -3.881202    1.277376    0.360700
     27          1           0       -3.924302    1.719656   -0.634790
     28          1           0       -4.893042    0.997185    0.656720
     29          1           0       -3.505962    2.021456    1.065640
     30          6           0       -3.208490   -1.273153   -1.787170
     31          1           0       -3.735619   -2.014874   -2.374620
     32          1           0       -2.362760   -0.780123   -2.252330
 ---------------------------------------------------------------------

 SCF Done:  E(RwB97XD) =  -1116.08020943     A.U. after   15 cycles

 The electronic state is 1-A.
 Alpha  occ. eigenvalues -- -101.69540 -19.27911 -10.36115 -10.35402 -10.34210
 Alpha  occ. eigenvalues --  -10.30848 -10.30224 -10.29645 -10.28996 -10.28933
 Alpha  occ. eigenvalues --  -10.28849 -10.28821 -10.28733 -10.28586 -10.27788
 Alpha  occ. eigenvalues --  -10.27659 -10.27484  -9.58078  -7.32711  -7.31868
 Alpha  occ. eigenvalues --   -7.31847  -1.17392  -1.00052  -0.95751  -0.93377
 Alpha  occ. eigenvalues --   -0.91229  -0.86133  -0.85078  -0.84970  -0.81396
 Alpha  occ. eigenvalues --   -0.79134  -0.73520  -0.72394  -0.71128  -0.69080
 Alpha  occ. eigenvalues --   -0.64917  -0.61518  -0.60416  -0.59072  -0.57747
 Alpha  occ. eigenvalues --   -0.56468  -0.55331  -0.53308  -0.52381  -0.51906
 Alpha  occ. eigenvalues --   -0.51620  -0.50409  -0.50071  -0.48860  -0.48061
 Alpha  occ. eigenvalues --   -0.47196  -0.46609  -0.45919  -0.45260  -0.44270
 Alpha  occ. eigenvalues --   -0.43418  -0.42669  -0.42307  -0.39981  -0.39399
 Alpha  occ. eigenvalues --   -0.38287  -0.34841  -0.34693  -0.32775  -0.27903
 Alpha virt. eigenvalues --    0.01562   0.04010   0.04105   0.04889   0.05306
 Alpha virt. eigenvalues --    0.05911   0.06198   0.06451   0.06680   0.07594
 Alpha virt. eigenvalues --    0.08282   0.08325   0.08761   0.08931   0.09141

 Mulliken charges:
               1
     1  C   -0.037927
     2  C   -0.189634
     3  C    0.021864
     4  C    0.015950
     5  C   -0.250996
     6  C   -0.017617
     7  H    0.160592
     8  H    0.172038
     9  H    0.191424
    10  H    0.158828
    11  C    0.122963
    12  C    0.104350
    13  C   -0.299049
    14  H    0.215404
    15  C   -0.162414
    16  H    0.174585
    17  O   -0.423272
    18  Cl  -0.183468
    19  C    0.151820
    20  C   -0.098059
    21  H    0.165384
    22  C   -0.446382
    23  H    0.160828
    24  H    0.166125
    25  H    0.169287
    26  C   -0.521219
    27  H    0.163054
    28  H    0.158171
    29  H    0.147497
    30  C   -0.333227
    31  H    0.165103
    32  H    0.177997
 Sum of Mulliken charges =   0.00000

 Dipole moment (field-independent basis, Debye):
    X=             -3.5971    Y=              0.5457    Z=              0.8166  Tot=              3.7287
 Quadrupole moment (field-independent basis, Debye-Ang):
   XX=           -100.5603   YY=           -100.1911   ZZ=           -109.7155
   XY=              8.0941   XZ=             -3.6709   YZ=              0.3168

  Exact polarizability: 279.116   7.337 260.816  -2.136  -0.162 155.903
 Approx polarizability: 247.123   3.810 249.801  -2.274  -2.152 162.508

                      1                      2                      3
                      A                      A                      A
 Frequencies --     34.3374                56.7427               100.4587
 Red. masses --      4.3020                 4.3125                 3.0325
 Frc consts  --      0.0030                 0.0082                 0.0180
 IR Inten    --      0.8476                 0.1514                 0.3584

                      4                      5                      6
                      A                      A                      A
 Frequencies --    113.5118               123.9275               158.2637
 Red. masses --      3.1331                 4.2316                 4.6255
 Frc consts  --      0.0238                 0.0383                 0.0683
 IR Inten    --      0.1110                 0.0330                 0.9870

                      7                      8                      9
                      A                      A                      A
 Frequencies --    180.0698               195.1689               230.3585
 Red. masses --      4.0357                 4.5343                 6.4657
 Frc consts  --      0.0771                 0.1018                 0.2021
 IR Inten    --      2.0802                 2.3007                 1.4949

                     10                     11                     12
                      A                      A                      A
 Frequencies --    244.0119               283.1049               293.5924
 Red. masses --      1.1085                 2.8464                 1.0672
 Frc consts  --      0.0389                 0.1344                 0.0542
 IR Inten    --      0.2133                 1.1430                 0.0255

                     13                     14                     15
                      A                      A                      A
 Frequencies --    326.4899               331.9543               364.4208
 Red. masses --      3.6373                 2.3810                 3.6437
 Frc consts  --      0.2284                 0.1546                 0.2851
 IR Inten    --      1.7320                 1.7888                 1.1846

                     16                     17                     18
                      A                      A                      A
 Frequencies --    381.7680               420.0441               430.7501
 Red. masses --      2.9328                 4.7568                 3.1030
 Frc consts  --      0.2518                 0.4945                 0.3392
 IR Inten    --      0.5125                 2.6036                 7.7116

                     19                     20                     21
                      A                      A                      A
 Frequencies --    459.3434               483.0541               498.9639
 Red. masses --      3.1201                 3.3905                 4.8453
 Frc consts  --      0.3879                 0.4661                 0.7107
 IR Inten    --      0.7742                 0.3365                 3.1031

                     22                     23                     24
                      A                      A                      A
 Frequencies --    537.0177               566.1569               605.1735
 Red. masses --      5.9247                 4.1667                 4.0280
 Frc consts  --      1.0067                 0.7869                 0.8692
 IR Inten    --      4.7650                 1.5395                 5.1120

                     25                     26                     27
                      A                      A                      A
 Frequencies --    621.5783               662.3270               678.2260
 Red. masses --      3.0939                 4.0925                 3.7538
 Frc consts  --      0.7043                 1.0578                 1.0173
 IR Inten    --      3.2919                10.1165                 8.0830

                     28                     29                     30
                      A                      A                      A
 Frequencies --    701.3868               749.8494               778.1266
 Red. masses --      2.0968                 4.4673                 3.6929
 Frc consts  --      0.6078                 1.4799                 1.3174
 IR Inten    --     23.5687                11.1065                17.9634

                     31                     32                     33
                      A                      A                      A
 Frequencies --    793.6971               812.0975               825.1767
 Red. masses --      1.5066                 4.4796                 2.6198
 Frc consts  --      0.5592                 1.7406                 1.0510
 IR Inten    --     77.8732                 0.9068                 4.1654

                     34                     35                     36
                      A                      A                      A
 Frequencies --    870.1300               904.0990               911.2143
 Red. masses --      1.4046                 1.9483                 2.4525
 Frc consts  --      0.6266                 0.9383                 1.1998
 IR Inten    --     43.7627                 7.8366                41.9377

                     37                     38                     39
                      A                      A                      A
 Frequencies --    949.6433               958.8816               972.1594
 Red. masses --      1.7434                 1.8427                 1.4146
 Frc consts  --      0.9263                 0.9982                 0.7877
 IR Inten    --     14.6984                 6.8021                 0.8422

                     40                     41                     42
                      A                      A                      A
 Frequencies --    977.3298               985.2286              1001.6163
 Red. masses --      1.3653                 4.0049                 1.3527
 Frc consts  --      0.7683                 2.2904                 0.7996
 IR Inten    --     48.7783                15.4149                 0.4256

                     43                     44                     45
                      A                      A                      A
 Frequencies --   1024.6733              1031.8430              1048.6572
 Red. masses --      1.3158                 1.2080                 1.2174
 Frc consts  --      0.8140                 0.7578                 0.7888
 IR Inten    --      0.0701                 5.1073                13.3828

                     46                     47                     48
                      A                      A                      A
 Frequencies --   1060.3944              1064.1973              1106.1882
 Red. masses --      1.3517                 2.6135                 2.5185
 Frc consts  --      0.8955                 1.7439                 1.8157
 IR Inten    --     20.8782                30.2501                75.7334

                     49                     50                     51
                      A                      A                      A
 Frequencies --   1166.7061              1188.9859              1202.1371
 Red. masses --      2.1603                 1.2095                 1.6270
 Frc consts  --      1.7325                 1.0074                 1.3853
 IR Inten    --      0.1039                24.0601                 0.8917

                     52                     53                     54
                      A                      A                      A
 Frequencies --   1211.9875              1226.6387              1235.1705
 Red. masses --      2.4760                 3.1302                 1.7830
 Frc consts  --      2.1429                 2.7750                 1.6028
 IR Inten    --    173.3341                18.4441                10.5938

                     55                     56                     57
                      A                      A                      A
 Frequencies --   1260.3694              1286.1374              1302.0527
 Red. masses --      2.6211                 1.8779                 2.2533
 Frc consts  --      2.4531                 1.8302                 2.2507
 IR Inten    --    208.4605                53.2444                74.1311

                     58                     59                     60
                      A                      A                      A
 Frequencies --   1333.8131              1369.4211              1408.1800
 Red. masses --      1.3074                 3.9715                 1.2651
 Frc consts  --      1.3704                 4.3881                 1.4781
 IR Inten    --      9.1723                55.6596                22.6170

                     61                     62                     63
                      A                      A                      A
 Frequencies --   1419.9725              1424.1264              1425.9399
 Red. masses --      8.6424                 2.1307                 1.2556
 Frc consts  --     10.2671                 2.5461                 1.5042
 IR Inten    --     30.2333               178.6721                14.5543

                     64                     65                     66
                      A                      A                      A
 Frequencies --   1452.0687              1476.6206              1479.2342
 Red. masses --      1.1807                 2.1077                 1.1065
 Frc consts  --      1.4668                 2.7077                 1.4265
 IR Inten    --     13.3937                36.4791                 2.8585

                     67                     68                     69
                      A                      A                      A
 Frequencies --   1485.2700              1498.3639              1505.2199
 Red. masses --      1.0588                 1.0663                 2.1668
 Frc consts  --      1.3762                 1.4105                 2.8925
 IR Inten    --      0.8623                 4.8803                58.9930

                     70                     71                     72
                      A                      A                      A
 Frequencies --   1512.5156              1567.9023              1647.8999
 Red. masses --      1.1655                 3.7642                 7.6050
 Frc consts  --      1.5710                 5.4521                12.1678
 IR Inten    --     35.0917                32.6007                46.0015

                     73                     74                     75
                      A                      A                      A
 Frequencies --   1665.8006              1701.3321              1736.8763
 Red. masses --      5.7595                 6.5537                 5.1484
 Frc consts  --      9.4163                11.1767                 9.1509
 IR Inten    --     84.3260                10.4515                 7.6320

                     76                     77                     78
                      A                      A                      A
 Frequencies --   3062.3387              3073.1684              3140.3905
 Red. masses --      1.0360                 1.0382                 1.1027
 Frc consts  --      5.7242                 5.7769                 6.4073
 IR Inten    --     16.9527                16.0263                 3.9272

                     79                     80                     81
                      A                      A                      A
 Frequencies --   3145.6294              3154.6737              3163.5530
 Red. masses --      1.1019                 1.1029                 1.0623
 Frc consts  --      6.4243                 6.4671                 6.2640
 IR Inten    --     41.4781                16.4153                12.2763

                     82                     83                     84
                      A                      A                      A
 Frequencies --   3168.6073              3176.4902              3201.7154
 Red. masses --      1.1008                 1.0897                 1.0879
 Frc consts  --      6.5115                 6.4784                 6.5707
 IR Inten    --     16.5673                 9.2438                 5.8969

                     85                     86                     87
                      A                      A                      A
 Frequencies --   3217.0040              3223.8987              3240.3131
 Red. masses --      1.0925                 1.0920                 1.0930
 Frc consts  --      6.6616                 6.6870                 6.7618
 IR Inten    --     12.4507                 3.2590                 3.6538

                     88                     89                     90
                      A                      A                      A
 Frequencies --   3245.4912              3256.3294              3260.9760
 Red. masses --      1.0940                 1.1165                 1.0923
 Frc consts  --      6.7892                 6.9750                 6.8435
 IR Inten    --      6.8861                 8.8701                 2.9129

 - Thermochemistry -
 -------------------
 Temperature   298.150 Kelvin.  Pressure   1.00000 Atm.
 Atom     1 has atomic number  6 and mass  12.00000

 Molecular mass:   246.08114 amu.
 Principal axes and moments of inertia in atomic units:
                           1         2         3
     Eigenvalues --  2548.491066321.214078062.42085
           X            0.99968   0.02475  -0.00589
           Y           -0.02472   0.99968   0.00514
           Z            0.00601  -0.00499   0.99997
 This molecule is an asymmetric top.
 Rotational symmetry number  1.
 Warning -- assumption of classical behavior for rotation
           may cause significant error
 Rotational temperatures (Kelvin)      0.03399     0.01370     0.01074
 Rotational constants (GHZ):           0.70816     0.28551     0.22385
 Zero-point vibrational energy     686828.3 (Joules/Mol)
                                  164.15591 (Kcal/Mol)
 Warning -- explicit consideration of  24 degrees of freedom as
           vibrations may cause significant error
 Vibrational temperatures:     49.40    81.64   144.54   163.32   178.30
          (Kelvin)            227.71   259.08   280.80   331.43   351.08
                              407.32   422.41   469.75   477.61   524.32
                              549.28   604.35   619.75   660.89   695.01
                              717.90   772.65   814.57   870.71   894.31
                              952.94   975.81  1009.14  1078.86  1119.55
                             1141.95  1168.43  1187.24  1251.92  1300.80
                             1311.03  1366.32  1379.61  1398.72  1406.16
                             1417.52  1441.10  1474.27  1484.59  1508.78
                             1525.67  1531.14  1591.56  1678.63  1710.68
                             1729.60  1743.78  1764.86  1777.13  1813.39
                             1850.46  1873.36  1919.06  1970.29  2026.05
                             2043.02  2049.00  2051.61  2089.20  2124.53
                             2128.29  2136.97  2155.81  2165.67  2176.17
                             2255.86  2370.96  2396.71  2447.83  2498.97
                             4406.02  4421.60  4518.32  4525.85  4538.87
                             4551.64  4558.91  4570.26  4606.55  4628.55
                             4638.47  4662.08  4669.53  4685.13  4691.81

 Zero-point correction=                           0.261599 (Hartree/Particle)
 Thermal correction to Energy=                    0.276925
 Thermal correction to Enthalpy=                  0.277869
 Thermal correction to Gibbs Free Energy=         0.219069
 Sum of electronic and zero-point Energies=          -1115.818610
 Sum of electronic and thermal Energies=             -1115.803285
 Sum of electronic and thermal Enthalpies=           -1115.802341
 Sum of electronic and thermal Free Energies=        -1115.861141

                     E (Thermal)             CV                S
                      KCal/Mol        Cal/Mol-Kelvin    Cal/Mol-Kelvin
 Total                  173.773             60.485            123.756
 Electronic               0.000              0.000              0.000
 Translational            0.889              2.981             42.402
 Rotational               0.889              2.981             33.229
 Vibrational            171.995             54.523             48.124
 Vibration     1          0.594              1.983              5.562
 Vibration     2          0.596              1.975              4.567
 Vibration     3          0.604              1.949              3.445
 Vibration     4          0.607              1.938              3.208
 Vibration     5          0.610              1.929              3.038
 Vibration     6          0.621              1.893              2.570
 Vibration     7          0.629              1.867              2.328
 Vibration     8          0.636              1.847              2.178
 Vibration     9          0.652              1.795              1.876
 Vibration    10          0.659              1.773              1.773
 Vibration    11          0.682              1.705              1.515
 Vibration    12          0.688              1.686              1.453
 Vibration    13          0.710              1.623              1.277
 Vibration    14          0.714              1.612              1.251
 Vibration    15          0.738              1.545              1.103
 Vibration    16          0.751              1.509              1.032
 Vibration    17          0.783              1.427              0.892
 Vibration    18          0.792              1.403              0.856
 Vibration    19          0.817              1.340              0.768
 Vibration    20          0.839              1.288              0.702
 Vibration    21          0.854              1.252              0.661
 Vibration    22          0.892              1.168              0.572
 Vibration    23          0.922              1.104              0.512
 Vibration    24          0.964              1.021              0.441

 Normal termination of Gaussian 09 at Fri Feb  4 19:43:43 2022.
