 Gaussian 09, Revision D.01,
 Gaussian 09:  ES64L-G09RevD.01 24-Apr-2013

 -------------------------------------------------------------------
 #n wB97XD/Gen scrf(smd,solvent=toluene) opt=(calcfc,ts,noeigentest)
 -------------------------------------------------------------------

 ------------------------
 ts_claisen toluene - opt
 ------------------------
 Symbolic Z-matrix:
 Charge =  0 Multiplicity = 1

 SCF Done:  E(RwB97XD) =  -1116.03301522     A.U. after   17 cycles

  Exact polarizability:   0.000   0.000   0.000   0.000   0.000   0.000
 Approx polarizability: 294.786   0.214 263.602  -8.010  -0.004 179.537

 SCF Done:  E(RwB97XD) =  -1116.03526744     A.U. after   14 cycles
 SCF Done:  E(RwB97XD) =  -1116.03535675     A.U. after   12 cycles
 SCF Done:  E(RwB97XD) =  -1116.03535936     A.U. after   10 cycles
 SCF Done:  E(RwB97XD) =  -1116.03536035     A.U. after    9 cycles
 SCF Done:  E(RwB97XD) =  -1116.03536036     A.U. after    8 cycles
 Optimization completed.
    -- Stationary point found.

                         Standard orientation:
 ---------------------------------------------------------------------
 Center     Atomic      Atomic             Coordinates (Angstroms)
 Number     Number       Type             X           Y           Z
 ---------------------------------------------------------------------
      1          6           0       -2.242757    2.689393    0.350345
      2          6           0       -2.575334    1.358801    0.343068
      3          6           0       -1.651580    0.386841   -0.087242
      4          6           0       -0.365486    0.806221   -0.496882
      5          6           0       -0.060189    2.175531   -0.497778
      6          6           0       -0.976828    3.106092   -0.080140
      7          1           0       -2.968626    3.421228    0.682339
      8          1           0       -3.560675    1.048397    0.662406
      9          1           0        0.921841    2.473485   -0.840427
     10          1           0       -0.726928    4.159746   -0.085613
     11          6           0        0.632931   -0.161356   -0.956378
     12          6           0       -1.957069   -1.015255   -0.149690
     13          6           0        0.265012   -1.524904   -0.930698
     14          1           0        0.910898   -2.233874   -1.427500
     15          6           0       -1.054550   -1.922589   -0.585026
     16          1           0       -1.325301   -2.968578   -0.649313
     17          8           0        1.804451    0.201575   -1.266490
     18         17           0       -3.545029   -1.566734    0.320412
     19          6           0        3.108654   -0.145343    0.449718
     20          6           0        2.730443   -1.481308    0.558237
     21          1           0        3.333832   -2.205910    0.021981
     22          6           0        4.385987    0.199231   -0.236190
     23          1           0        4.700049   -0.579121   -0.929633
     24          1           0        4.281367    1.138167   -0.779461
     25          1           0        5.173975    0.339246    0.511813
     26          6           0        2.543582    0.919121    1.330240
     27          1           0        1.495342    0.765737    1.576508
     28          1           0        3.106756    0.924915    2.269662
     29          1           0        2.653977    1.899990    0.871573
     30          6           0        1.502595   -1.886182    1.014055
     31          1           0        1.253571   -2.938845    1.033433
     32          1           0        0.867326   -1.248469    1.613315
 ---------------------------------------------------------------------

 The electronic state is 1-A.
 Alpha  occ. eigenvalues -- -101.69551 -19.21717 -10.34361 -10.34283 -10.33731
 Alpha  occ. eigenvalues --  -10.31483 -10.30725 -10.29460 -10.29400 -10.29063
 Alpha  occ. eigenvalues --  -10.28844 -10.28712 -10.28588 -10.28489 -10.28212
 Alpha  occ. eigenvalues --  -10.28078 -10.27886  -9.58090  -7.32719  -7.31883
 Alpha  occ. eigenvalues --   -7.31858  -1.10865  -0.99510  -0.95375  -0.93816
 Alpha  occ. eigenvalues --   -0.91051  -0.85795  -0.85450  -0.84403  -0.80146
 Alpha  occ. eigenvalues --   -0.79176  -0.72845  -0.71992  -0.71499  -0.66503
 Alpha  occ. eigenvalues --   -0.62465  -0.60462  -0.60349  -0.58205  -0.57316
 Alpha  occ. eigenvalues --   -0.55206  -0.54925  -0.54239  -0.52029  -0.51218
 Alpha  occ. eigenvalues --   -0.51052  -0.49807  -0.49420  -0.48601  -0.47634
 Alpha  occ. eigenvalues --   -0.46755  -0.46575  -0.45888  -0.45036  -0.44370
 Alpha  occ. eigenvalues --   -0.43697  -0.43456  -0.42007  -0.39383  -0.38316
 Alpha  occ. eigenvalues --   -0.36826  -0.34139  -0.33263  -0.31306  -0.26751
 Alpha virt. eigenvalues --   -0.01421   0.02580   0.04285   0.04650   0.04924
 Alpha virt. eigenvalues --    0.05256   0.06251   0.06576   0.06731   0.07586
 Alpha virt. eigenvalues --    0.07777   0.07866   0.08632   0.08980   0.09480

 Mulliken charges:
               1
     1  C   -0.090382
     2  C   -0.133322
     3  C   -0.050466
     4  C   -0.312479
     5  C    0.017968
     6  C   -0.011109
     7  H    0.160588
     8  H    0.172984
     9  H    0.199193
    10  H    0.158811
    11  C   -0.010846
    12  C    0.125893
    13  C   -0.225912
    14  H    0.188424
    15  C   -0.008081
    16  H    0.176121
    17  O   -0.519330
    18  Cl  -0.181880
    19  C    0.232711
    20  C   -0.111034
    21  H    0.154770
    22  C   -0.404819
    23  H    0.148766
    24  H    0.170548
    25  H    0.161966
    26  C   -0.510954
    27  H    0.162834
    28  H    0.173065
    29  H    0.164896
    30  C   -0.393231
    31  H    0.185017
    32  H    0.209288
 Sum of Mulliken charges =   0.00000

 Dipole moment (field-independent basis, Debye):
    X=              3.2744    Y=             -0.1381    Z=              2.3283  Tot=              4.0202
 Quadrupole moment (field-independent basis, Debye-Ang):
   XX=           -102.6974   YY=            -95.5981   ZZ=           -112.2241
   XY=             -4.6386   XZ=              2.7653   YZ=              3.1054

 Normal termination of Gaussian 09 at Thu Feb  3 00:39:15 2022.
