 Gaussian 09, Revision D.01,
 Gaussian 09:  ES64L-G09RevD.01 24-Apr-2013

 --------------------------------------------
 #n wB97XD/Gen scrf(smd,solvent=toluene) freq
 --------------------------------------------

 -------------------------
 ts_claisen toluene - freq
 -------------------------
 Symbolic Z-matrix:
 Charge =  0 Multiplicity = 1

                         Standard orientation:
 ---------------------------------------------------------------------
 Center     Atomic      Atomic             Coordinates (Angstroms)
 Number     Number       Type             X           Y           Z
 ---------------------------------------------------------------------
      1          6           0       -2.242759    2.689390    0.350350
      2          6           0       -2.575329    1.358800    0.343070
      3          6           0       -1.651579    0.386840   -0.087240
      4          6           0       -0.365489    0.806220   -0.496880
      5          6           0       -0.060189    2.175530   -0.497780
      6          6           0       -0.976829    3.106090   -0.080140
      7          1           0       -2.968629    3.421230    0.682340
      8          1           0       -3.560669    1.048400    0.662410
      9          1           0        0.921841    2.473490   -0.840430
     10          1           0       -0.726929    4.159750   -0.085610
     11          6           0        0.632931   -0.161360   -0.956380
     12          6           0       -1.957069   -1.015260   -0.149690
     13          6           0        0.265011   -1.524900   -0.930700
     14          1           0        0.910901   -2.233870   -1.427500
     15          6           0       -1.054549   -1.922590   -0.585030
     16          1           0       -1.325299   -2.968580   -0.649310
     17          8           0        1.804451    0.201580   -1.266490
     18         17           0       -3.545029   -1.566730    0.320410
     19          6           0        3.108651   -0.145341    0.449720
     20          6           0        2.730441   -1.481311    0.558240
     21          1           0        3.333831   -2.205911    0.021980
     22          6           0        4.385991    0.199229   -0.236190
     23          1           0        4.700051   -0.579121   -0.929630
     24          1           0        4.281371    1.138169   -0.779460
     25          1           0        5.173981    0.339249    0.511810
     26          6           0        2.543581    0.919119    1.330240
     27          1           0        1.495341    0.765740    1.576510
     28          1           0        3.106761    0.924919    2.269660
     29          1           0        2.653981    1.899989    0.871570
     30          6           0        1.502591   -1.886180    1.014050
     31          1           0        1.253571   -2.938850    1.033430
     32          1           0        0.867331   -1.248470    1.613320
 ---------------------------------------------------------------------

 SCF Done:  E(RwB97XD) =  -1116.03536036     A.U. after   17 cycles

 The electronic state is 1-A.
 Alpha  occ. eigenvalues -- -101.69551 -19.21717 -10.34361 -10.34283 -10.33731
 Alpha  occ. eigenvalues --  -10.31483 -10.30725 -10.29460 -10.29400 -10.29063
 Alpha  occ. eigenvalues --  -10.28844 -10.28712 -10.28588 -10.28489 -10.28212
 Alpha  occ. eigenvalues --  -10.28078 -10.27886  -9.58090  -7.32719  -7.31883
 Alpha  occ. eigenvalues --   -7.31858  -1.10864  -0.99510  -0.95375  -0.93816
 Alpha  occ. eigenvalues --   -0.91051  -0.85795  -0.85450  -0.84403  -0.80146
 Alpha  occ. eigenvalues --   -0.79176  -0.72845  -0.71992  -0.71499  -0.66503
 Alpha  occ. eigenvalues --   -0.62465  -0.60462  -0.60349  -0.58205  -0.57316
 Alpha  occ. eigenvalues --   -0.55206  -0.54925  -0.54239  -0.52029  -0.51218
 Alpha  occ. eigenvalues --   -0.51052  -0.49807  -0.49420  -0.48601  -0.47633
 Alpha  occ. eigenvalues --   -0.46755  -0.46575  -0.45888  -0.45036  -0.44370
 Alpha  occ. eigenvalues --   -0.43697  -0.43456  -0.42007  -0.39383  -0.38316
 Alpha  occ. eigenvalues --   -0.36826  -0.34139  -0.33263  -0.31306  -0.26751
 Alpha virt. eigenvalues --   -0.01421   0.02580   0.04285   0.04650   0.04924
 Alpha virt. eigenvalues --    0.05256   0.06251   0.06576   0.06731   0.07585
 Alpha virt. eigenvalues --    0.07777   0.07866   0.08632   0.08980   0.09480

 Mulliken charges:
               1
     1  C   -0.090382
     2  C   -0.133318
     3  C   -0.050477
     4  C   -0.312473
     5  C    0.017967
     6  C   -0.011105
     7  H    0.160589
     8  H    0.172983
     9  H    0.199193
    10  H    0.158811
    11  C   -0.010843
    12  C    0.125892
    13  C   -0.225908
    14  H    0.188424
    15  C   -0.008085
    16  H    0.176121
    17  O   -0.519330
    18  Cl  -0.181878
    19  C    0.232712
    20  C   -0.111033
    21  H    0.154770
    22  C   -0.404819
    23  H    0.148767
    24  H    0.170547
    25  H    0.161966
    26  C   -0.510948
    27  H    0.162835
    28  H    0.173065
    29  H    0.164895
    30  C   -0.393244
    31  H    0.185016
    32  H    0.209288
 Sum of Mulliken charges =   0.00000

 Dipole moment (field-independent basis, Debye):
    X=              3.2744    Y=             -0.1381    Z=              2.3283  Tot=              4.0202
 Quadrupole moment (field-independent basis, Debye-Ang):
   XX=           -102.6973   YY=            -95.5981   ZZ=           -112.2241
   XY=             -4.6385   XZ=              2.7653   YZ=              3.1055

  Exact polarizability: 347.320  -8.138 270.669   3.537   2.626 163.697
 Approx polarizability: 297.067   2.948 260.889  -6.190   0.591 181.892

 ******    1 imaginary frequencies (negative Signs) ******

                      1                      2                      3
                      A                      A                      A
 Frequencies --   -351.8336                51.1572                72.1929
 Red. masses --      8.4852                 4.0305                 4.5468
 Frc consts  --      0.6189                 0.0062                 0.0140
 IR Inten    --    121.4965                 0.0099                 0.5948

                      4                      5                      6
                      A                      A                      A
 Frequencies --     79.9818               133.3429               160.9669
 Red. masses --      5.2750                 4.0394                 2.8332
 Frc consts  --      0.0199                 0.0423                 0.0433
 IR Inten    --      1.8019                 0.9956                23.2367

                      7                      8                      9
                      A                      A                      A
 Frequencies --    176.6413               191.2810               209.9739
 Red. masses --      1.2532                 3.1861                 5.0232
 Frc consts  --      0.0230                 0.0687                 0.1305
 IR Inten    --      8.6195                 1.0297                18.0392

                     10                     11                     12
                      A                      A                      A
 Frequencies --    216.3756               244.4334               269.7857
 Red. masses --      6.5918                 1.2865                 4.5565
 Frc consts  --      0.1818                 0.0453                 0.1954
 IR Inten    --      2.5061                 4.2024                21.0292

                     13                     14                     15
                      A                      A                      A
 Frequencies --    305.5835               339.2132               350.5821
 Red. masses --      2.7082                 4.8082                 3.3040
 Frc consts  --      0.1490                 0.3260                 0.2393
 IR Inten    --     15.7749                22.0544                 7.5700

                     16                     17                     18
                      A                      A                      A
 Frequencies --    365.0030               390.4632               424.6789
 Red. masses --      4.5294                 6.5509                 2.3619
 Frc consts  --      0.3555                 0.5885                 0.2510
 IR Inten    --      1.3548                 0.9698                 1.5817

                     19                     20                     21
                      A                      A                      A
 Frequencies --    438.6551               466.8601               490.1283
 Red. masses --      2.8028                 2.4089                 3.8662
 Frc consts  --      0.3177                 0.3093                 0.5472
 IR Inten    --      4.8393                 4.7381                 0.4308

                     22                     23                     24
                      A                      A                      A
 Frequencies --    492.1848               536.7733               546.6882
 Red. masses --      6.2897                 5.9380                 2.7503
 Frc consts  --      0.8977                 1.0080                 0.4843
 IR Inten    --      2.4797                 5.6419                 1.7308

                     25                     26                     27
                      A                      A                      A
 Frequencies --    588.6155               621.2817               668.9844
 Red. masses --      5.2581                 3.2617                 6.9811
 Frc consts  --      1.0733                 0.7418                 1.8408
 IR Inten    --      5.3468                 1.1655                30.2834

                     28                     29                     30
                      A                      A                      A
 Frequencies --    713.5649               745.7314               752.4060
 Red. masses --      2.9981                 1.4170                 5.4549
 Frc consts  --      0.8994                 0.4643                 1.8195
 IR Inten    --     15.6007                16.1455                16.0244

                     31                     32                     33
                      A                      A                      A
 Frequencies --    794.7230               797.2734               804.6568
 Red. masses --      2.4448                 1.8605                 3.9098
 Frc consts  --      0.9097                 0.6968                 1.4915
 IR Inten    --     30.9010                34.0489                10.3997

                     34                     35                     36
                      A                      A                      A
 Frequencies --    832.7320               873.1502               907.1354
 Red. masses --      2.5975                 1.2909                 1.8007
 Frc consts  --      1.0612                 0.5799                 0.8730
 IR Inten    --      9.9947               119.1447                 2.4830

                     37                     38                     39
                      A                      A                      A
 Frequencies --    928.4406               947.6862               971.5423
 Red. masses --      1.3355                 1.2513                 5.3538
 Frc consts  --      0.6783                 0.6621                 2.9774
 IR Inten    --     44.5938                 1.1472                37.8602

                     40                     41                     42
                      A                      A                      A
 Frequencies --    986.2228              1003.3198              1014.5277
 Red. masses --      1.3165                 1.3672                 1.2648
 Frc consts  --      0.7544                 0.8109                 0.7670
 IR Inten    --      9.6884                 1.4891                 3.5545

                     43                     44                     45
                      A                      A                      A
 Frequencies --   1026.2409              1027.9156              1035.3559
 Red. masses --      1.3481                 1.3511                 1.2826
 Frc consts  --      0.8365                 0.8411                 0.8100
 IR Inten    --     12.7704                13.8335                 5.0933

                     46                     47                     48
                      A                      A                      A
 Frequencies --   1059.5228              1085.3489              1090.4797
 Red. masses --      2.3759                 1.5960                 2.0915
 Frc consts  --      1.5714                 1.1077                 1.4654
 IR Inten    --     26.7594               108.1284                 7.3626

                     49                     50                     51
                      A                      A                      A
 Frequencies --   1099.5187              1144.9827              1172.3758
 Red. masses --      1.5032                 1.9652                 1.3658
 Frc consts  --      1.0707                 1.5179                 1.1060
 IR Inten    --     16.9394                13.9157                10.9287

                     52                     53                     54
                      A                      A                      A
 Frequencies --   1179.1423              1225.3761              1265.2572
 Red. masses --      1.4193                 1.6768                 1.8306
 Frc consts  --      1.1627                 1.4834                 1.7266
 IR Inten    --      5.8497                28.3663                11.9571

                     55                     56                     57
                      A                      A                      A
 Frequencies --   1270.4547              1304.1017              1331.7823
 Red. masses --      2.2918                 1.7456                 4.2965
 Frc consts  --      2.1794                 1.7492                 4.4898
 IR Inten    --     15.4308                37.7064                 4.9061

                     58                     59                     60
                      A                      A                      A
 Frequencies --   1352.8592              1374.8359              1395.8794
 Red. masses --      1.9666                 1.5343                 5.6218
 Frc consts  --      2.1207                 1.7087                 6.4539
 IR Inten    --     20.7182                24.1346                15.1511

                     61                     62                     63
                      A                      A                      A
 Frequencies --   1413.8127              1429.0311              1433.4028
 Red. masses --      1.3283                 2.0118                 1.7342
 Frc consts  --      1.5644                 2.4206                 2.0994
 IR Inten    --     15.3161                19.3191                15.2537

                     64                     65                     66
                      A                      A                      A
 Frequencies --   1464.0967              1466.1881              1486.0727
 Red. masses --      1.0715                 1.2647                 1.0871
 Frc consts  --      1.3533                 1.6018                 1.4145
 IR Inten    --      4.0749                62.2777                12.1433

                     67                     68                     69
                      A                      A                      A
 Frequencies --   1488.4242              1495.4760              1515.6391
 Red. masses --      2.0849                 2.3130                 1.4105
 Frc consts  --      2.7214                 3.0478                 1.9091
 IR Inten    --     18.0219                24.6045                90.4252

                     70                     71                     72
                      A                      A                      A
 Frequencies --   1526.5345              1552.8040              1593.2287
 Red. masses --      1.7925                 2.5232                 3.8203
 Frc consts  --      2.4610                 3.5846                 5.7135
 IR Inten    --     69.8218                25.9117               100.6325

                     73                     74                     75
                      A                      A                      A
 Frequencies --   1641.8532              1655.9671              1686.7473
 Red. masses --      5.0594                 6.5444                 6.3846
 Frc consts  --      8.0356                10.5736                10.7024
 IR Inten    --    226.8184                39.2652                11.9223

                     76                     77                     78
                      A                      A                      A
 Frequencies --   3047.6010              3056.2840              3128.1850
 Red. masses --      1.0462                 1.0482                 1.0884
 Frc consts  --      5.7252                 5.7686                 6.2749
 IR Inten    --     16.0855                22.6879                 8.2809

                     79                     80                     81
                      A                      A                      A
 Frequencies --   3136.2201              3168.0064              3176.4376
 Red. masses --      1.0871                 1.1038                 1.0885
 Frc consts  --      6.2998                 6.5271                 6.4711
 IR Inten    --      4.6010                11.5933                 3.1648

                     82                     83                     84
                      A                      A                      A
 Frequencies --   3184.8253              3191.1825              3201.2564
 Red. masses --      1.0757                 1.0868                 1.0872
 Frc consts  --      6.4284                 6.5211                 6.5646
 IR Inten    --     26.6055                 6.7677                 4.8556

                     85                     86                     87
                      A                      A                      A
 Frequencies --   3215.8224              3218.1091              3235.0110
 Red. masses --      1.0920                 1.0913                 1.0926
 Frc consts  --      6.6537                 6.6587                 6.7370
 IR Inten    --     12.9754                 6.0782                 3.9676

                     88                     89                     90
                      A                      A                      A
 Frequencies --   3237.8524              3244.2566              3272.0305
 Red. masses --      1.0950                 1.0924                 1.1164
 Frc consts  --      6.7636                 6.7744                 7.0424
 IR Inten    --     10.8700                 2.5015                 1.5999

 - Thermochemistry -
 -------------------
 Temperature   298.150 Kelvin.  Pressure   1.00000 Atm.
 Atom     1 has atomic number  6 and mass  12.00000

 Molecular mass:   246.08114 amu.
 Principal axes and moments of inertia in atomic units:
                           1         2         3
     Eigenvalues --  2630.899005462.537107220.32830
           X            0.99977  -0.02108   0.00401
           Y            0.02103   0.99971   0.01191
           Z           -0.00426  -0.01182   0.99992
 This molecule is an asymmetric top.
 Rotational symmetry number  1.
 Warning -- assumption of classical behavior for rotation
           may cause significant error
 Rotational temperatures (Kelvin)      0.03292     0.01586     0.01200
 Rotational constants (GHZ):           0.68598     0.33039     0.24995
    1 imaginary frequencies ignored.
 Zero-point vibrational energy     681325.5 (Joules/Mol)
                                  162.84070 (Kcal/Mol)
 Warning -- explicit consideration of  24 degrees of freedom as
           vibrations may cause significant error
 Vibrational temperatures:     73.60   103.87   115.08   191.85   231.60
          (Kelvin)            254.15   275.21   302.11   311.32   351.68
                              388.16   439.67   488.05   504.41   525.16
                              561.79   611.02   631.13   671.71   705.18
                              708.14   772.30   786.56   846.89   893.88
                              962.52  1026.66  1072.94  1082.54  1143.43
                             1147.10  1157.72  1198.11  1256.27  1305.16
                             1335.82  1363.51  1397.83  1418.95  1443.55
                             1459.68  1476.53  1478.94  1489.64  1524.42
                             1561.57  1568.96  1581.96  1647.37  1686.79
                             1696.52  1763.04  1820.42  1827.90  1876.31
                             1916.14  1946.46  1978.08  2008.36  2034.16
                             2056.05  2062.34  2106.51  2109.51  2138.12
                             2141.51  2151.65  2180.66  2196.34  2234.14
                             2292.30  2362.26  2382.56  2426.85  4384.81
                             4397.31  4500.75  4512.32  4558.05  4570.18
                             4582.25  4591.39  4605.89  4626.85  4630.14
                             4654.45  4658.54  4667.76  4707.72

 Zero-point correction=                           0.259503 (Hartree/Particle)
 Thermal correction to Energy=                    0.274527
 Thermal correction to Enthalpy=                  0.275471
 Thermal correction to Gibbs Free Energy=         0.217899
 Sum of electronic and zero-point Energies=          -1115.775857
 Sum of electronic and thermal Energies=             -1115.760833
 Sum of electronic and thermal Enthalpies=           -1115.759889
 Sum of electronic and thermal Free Energies=        -1115.817461

                     E (Thermal)             CV                S
                      KCal/Mol        Cal/Mol-Kelvin    Cal/Mol-Kelvin
 Total                  172.268             59.751            121.170
 Electronic               0.000              0.000              0.000
 Translational            0.889              2.981             42.402
 Rotational               0.889              2.981             33.006
 Vibrational            170.491             53.789             45.762
 Vibration     1          0.595              1.977              4.772
 Vibration     2          0.598              1.967              4.093
 Vibration     3          0.600              1.963              3.891
 Vibration     4          0.613              1.920              2.897
 Vibration     5          0.622              1.890              2.538
 Vibration     6          0.628              1.871              2.364
 Vibration     7          0.634              1.852              2.215
 Vibration     8          0.642              1.826              2.044
 Vibration     9          0.645              1.816              1.989
 Vibration    10          0.660              1.772              1.770
 Vibration    11          0.674              1.729              1.598
 Vibration    12          0.696              1.663              1.386
 Vibration    13          0.719              1.597              1.216
 Vibration    14          0.727              1.574              1.164
 Vibration    15          0.738              1.544              1.101
 Vibration    16          0.758              1.491              0.998
 Vibration    17          0.787              1.417              0.876
 Vibration    18          0.799              1.386              0.831
 Vibration    19          0.824              1.324              0.746
 Vibration    20          0.846              1.272              0.683
 Vibration    21          0.848              1.267              0.678
 Vibration    22          0.892              1.169              0.572
 Vibration    23          0.902              1.147              0.551
 Vibration    24          0.946              1.056              0.470

 Normal termination of Gaussian 09 at Fri Feb  4 23:01:59 2022.
