 Gaussian 09, Revision D.01,
 Gaussian 09:  ES64L-G09RevD.01 24-Apr-2013

 ----------------------------------------------------------------------
 # freq scrf=(cpcm,solvent=toluene) geom=connectivity def2svp empirical
 dispersion=gd3 m062x
 ----------------------------------------------------------------------

 -------------------
 Title Card Required
 -------------------
 Symbolic Z-matrix:
 Charge =  0 Multiplicity = 1

                         Standard orientation:
 ---------------------------------------------------------------------
 Center     Atomic      Atomic             Coordinates (Angstroms)
 Number     Number       Type             X           Y           Z
 ---------------------------------------------------------------------
      1          6           0       -2.261634    2.695446    0.334416
      2          6           0       -2.590891    1.354746    0.327622
      3          6           0       -1.648137    0.383746   -0.083292
      4          6           0       -0.352127    0.809945   -0.474739
      5          6           0       -0.048689    2.186638   -0.480263
      6          6           0       -0.983635    3.119337   -0.078869
      7          1           0       -3.001500    3.430711    0.654478
      8          1           0       -3.584919    1.030362    0.634360
      9          1           0        0.945731    2.484067   -0.815059
     10          1           0       -0.737561    4.182139   -0.084299
     11          6           0        0.660084   -0.155836   -0.922897
     12          6           0       -1.949278   -1.028100   -0.146093
     13          6           0        0.307591   -1.534957   -0.877490
     14          1           0        0.960857   -2.236370   -1.393642
     15          6           0       -1.030317   -1.940009   -0.562834
     16          1           0       -1.307274   -2.992985   -0.626393
     17          8           0        1.838190    0.211271   -1.204764
     18         17           0       -3.551515   -1.571866    0.282661
     19          6           0        3.087238   -0.146081    0.419752
     20          6           0        2.716711   -1.488905    0.577613
     21          1           0        3.325580   -2.236338    0.061006
     22          6           0        4.373970    0.181070   -0.272642
     23          1           0        4.698150   -0.635652   -0.929019
     24          1           0        4.246871    1.092940   -0.870989
     25          1           0        5.161312    0.372683    0.474397
     26          6           0        2.543648    0.933199    1.308711
     27          1           0        1.486012    0.788983    1.561511
     28          1           0        3.119934    0.934250    2.248447
     29          1           0        2.660531    1.917645    0.838520
     30          6           0        1.454698   -1.865975    1.001451
     31          1           0        1.194071   -2.924165    1.057293
     32          1           0        0.827064   -1.202296    1.599598
 ---------------------------------------------------------------------

 SCF Done:  E(RM062X) =  -1115.07103135     A.U. after   15 cycles

 The electronic state is 1-A.
 Alpha  occ. eigenvalues -- -102.63976 -19.61764 -10.61409 -10.61382 -10.61027
 Alpha  occ. eigenvalues --  -10.58973 -10.57911 -10.57086 -10.57020 -10.56676
 Alpha  occ. eigenvalues --  -10.56392 -10.56294 -10.56187 -10.56106 -10.55603
 Alpha  occ. eigenvalues --  -10.55306 -10.55193  -9.80970  -7.53670  -7.53000
 Alpha  occ. eigenvalues --   -7.52995  -1.12512  -0.99303  -0.94913  -0.92652
 Alpha  occ. eigenvalues --   -0.90522  -0.84718  -0.84414  -0.83074  -0.78527
 Alpha  occ. eigenvalues --   -0.77983  -0.71040  -0.70531  -0.70084  -0.65087
 Alpha  occ. eigenvalues --   -0.60598  -0.59161  -0.58840  -0.56742  -0.55226
 Alpha  occ. eigenvalues --   -0.53896  -0.52910  -0.52691  -0.50493  -0.49805
 Alpha  occ. eigenvalues --   -0.49633  -0.47979  -0.47764  -0.46617  -0.45667
 Alpha  occ. eigenvalues --   -0.45034  -0.44787  -0.44144  -0.42893  -0.42281
 Alpha  occ. eigenvalues --   -0.42036  -0.41393  -0.40291  -0.37470  -0.36687
 Alpha  occ. eigenvalues --   -0.34537  -0.33007  -0.32027  -0.28954  -0.25056
 Alpha virt. eigenvalues --   -0.03674  -0.01031   0.01826   0.06129   0.08358
 Alpha virt. eigenvalues --    0.09357   0.09575   0.11552   0.11932   0.12221
 Alpha virt. eigenvalues --    0.14164   0.14250   0.15881   0.16468   0.17173

 Mulliken charges:
               1
     1  C   -0.010128
     2  C   -0.063723
     3  C    0.072320
     4  C   -0.066640
     5  C   -0.051054
     6  C   -0.010382
     7  H    0.032609
     8  H    0.020408
     9  H    0.024977
    10  H    0.030869
    11  C    0.179040
    12  C    0.020603
    13  C   -0.146085
    14  H    0.042025
    15  C    0.023100
    16  H    0.026077
    17  O   -0.339728
    18  Cl  -0.109893
    19  C   -0.172284
    20  C   -0.041720
    21  H    0.032696
    22  C    0.016009
    23  H    0.050044
    24  H    0.061397
    25  H    0.064582
    26  C   -0.000536
    27  H    0.062941
    28  H    0.070992
    29  H    0.055936
    30  C   -0.020290
    31  H    0.072981
    32  H    0.072858
 Sum of Mulliken charges =   0.00000

 Dipole moment (field-independent basis, Debye):
    X=              2.4032    Y=             -0.1266    Z=              2.0563  Tot=              3.1654
 Quadrupole moment (field-independent basis, Debye-Ang):
   XX=           -102.6667   YY=            -95.3108   ZZ=           -112.0836
   XY=             -3.7872   XZ=              1.5745   YZ=              2.9461

  Exact polarizability: 303.945  -9.633 245.295  -3.952   4.578 130.731
 Approx polarizability: 316.579  -1.333 275.289 -11.067   1.539 162.606

 ******    1 imaginary frequencies (negative Signs) ******

                      1                      2                      3
                      A                      A                      A
 Frequencies --   -428.5402                52.1232                72.8335
 Red. masses --      8.8315                 4.0938                 4.2948
 Frc consts  --      0.9556                 0.0066                 0.0134
 IR Inten    --     90.9764                 0.0362                 0.9138

                      4                      5                      6
                      A                      A                      A
 Frequencies --     83.4729               133.9024               154.2683
 Red. masses --      5.2094                 3.5172                 1.2179
 Frc consts  --      0.0214                 0.0372                 0.0171
 IR Inten    --      0.7152                 0.6112                 0.6160

                      7                      8                      9
                      A                      A                      A
 Frequencies --    187.9584               193.5316               208.7797
 Red. masses --      2.4090                 1.7818                 2.7186
 Frc consts  --      0.0501                 0.0393                 0.0698
 IR Inten    --      9.2512                11.3310                 9.3026

                     10                     11                     12
                      A                      A                      A
 Frequencies --    215.0389               225.3246               280.1403
 Red. masses --      2.6924                 6.5770                 4.5568
 Frc consts  --      0.0734                 0.1967                 0.2107
 IR Inten    --      0.9220                 6.3120                13.3709

                     13                     14                     15
                      A                      A                      A
 Frequencies --    299.3196               333.9005               346.9676
 Red. masses --      2.9413                 3.2413                 6.3805
 Frc consts  --      0.1553                 0.2129                 0.4526
 IR Inten    --     13.8471                12.1406                28.0488

                     16                     17                     18
                      A                      A                      A
 Frequencies --    372.0253               392.1511               408.5410
 Red. masses --      5.4302                 4.3503                 2.6994
 Frc consts  --      0.4428                 0.3942                 0.2655
 IR Inten    --      0.7397                 1.0535                 4.3656

                     19                     20                     21
                      A                      A                      A
 Frequencies --    438.5162               471.9766               488.3104
 Red. masses --      2.9602                 2.4230                 5.7490
 Frc consts  --      0.3354                 0.3180                 0.8077
 IR Inten    --      2.8706                 4.6214                 0.4210

                     22                     23                     24
                      A                      A                      A
 Frequencies --    492.9599               530.7941               538.9297
 Red. masses --      4.0772                 3.0712                 4.4966
 Frc consts  --      0.5838                 0.5098                 0.7695
 IR Inten    --      2.0424                 1.7274                 4.7038

                     25                     26                     27
                      A                      A                      A
 Frequencies --    586.5636               618.4616               663.3318
 Red. masses --      5.1295                 3.2900                 6.9754
 Frc consts  --      1.0398                 0.7414                 1.8083
 IR Inten    --      6.0499                 1.3660                30.9686

                     28                     29                     30
                      A                      A                      A
 Frequencies --    721.3944               752.5979               759.8091
 Red. masses --      3.2241                 5.7636                 1.5941
 Frc consts  --      0.9886                 1.9234                 0.5422
 IR Inten    --     13.9853                17.6315                15.0034

                     31                     32                     33
                      A                      A                      A
 Frequencies --    794.8212               801.4828               810.4064
 Red. masses --      3.6407                 1.6982                 2.2366
 Frc consts  --      1.3551                 0.6427                 0.8654
 IR Inten    --      7.0583                46.1393                12.3086

                     34                     35                     36
                      A                      A                      A
 Frequencies --    840.0293               892.6838               921.1908
 Red. masses --      2.9879                 1.3185                 1.6737
 Frc consts  --      1.2422                 0.6190                 0.8368
 IR Inten    --      5.6970                59.9320                 3.5351

                     37                     38                     39
                      A                      A                      A
 Frequencies --    927.1315               935.4322               962.4818
 Red. masses --      1.2794                 1.2605                 4.3535
 Frc consts  --      0.6480                 0.6499                 2.3762
 IR Inten    --      7.2087                47.6750                33.0634

                     40                     41                     42
                      A                      A                      A
 Frequencies --    973.6486               982.0486              1013.4174
 Red. masses --      1.3884                 1.2569                 1.2539
 Frc consts  --      0.7755                 0.7142                 0.7588
 IR Inten    --      9.7595                 1.7321                 5.6974

                     43                     44                     45
                      A                      A                      A
 Frequencies --   1014.6002              1043.8341              1046.5888
 Red. masses --      1.3498                 1.3459                 1.3528
 Frc consts  --      0.8187                 0.8640                 0.8730
 IR Inten    --      5.7968                 4.7794                 0.6424

                     46                     47                     48
                      A                      A                      A
 Frequencies --   1059.0494              1064.5264              1074.2601
 Red. masses --      1.9140                 1.6736                 1.6438
 Frc consts  --      1.2648                 1.1174                 1.1177
 IR Inten    --     74.5781                25.6942                26.3978

                     49                     50                     51
                      A                      A                      A
 Frequencies --   1077.7187              1127.7766              1153.0322
 Red. masses --      1.6097                 1.6342                 1.2339
 Frc consts  --      1.1015                 1.2246                 0.9665
 IR Inten    --      2.5856                 7.8983                 9.6601

                     52                     53                     54
                      A                      A                      A
 Frequencies --   1163.4790              1211.8956              1255.6581
 Red. masses --      1.4137                 1.9065                 1.6202
 Frc consts  --      1.1276                 1.6497                 1.5051
 IR Inten    --      3.8752                38.1735                16.1112

                     55                     56                     57
                      A                      A                      A
 Frequencies --   1257.7333              1281.0745              1337.7519
 Red. masses --      1.7554                 1.7032                 1.9614
 Frc consts  --      1.6361                 1.6469                 2.0681
 IR Inten    --      6.2958                20.5989                26.0407

                     58                     59                     60
                      A                      A                      A
 Frequencies --   1343.3033              1348.6074              1381.9146
 Red. masses --      1.3954                 4.3835                 1.3324
 Frc consts  --      1.4836                 4.6972                 1.4992
 IR Inten    --      2.7504                 3.9152                12.4866

                     61                     62                     63
                      A                      A                      A
 Frequencies --   1411.5141              1415.2362              1430.4656
 Red. masses --      1.5420                 4.2807                 1.6984
 Frc consts  --      1.8101                 5.0515                 2.0476
 IR Inten    --     28.9062                14.1842                27.8919

                     64                     65                     66
                      A                      A                      A
 Frequencies --   1433.8886              1438.9197              1447.9816
 Red. masses --      1.0889                 2.0373                 1.0629
 Frc consts  --      1.3190                 2.4854                 1.3130
 IR Inten    --      1.3352                15.8502                14.0544

                     67                     68                     69
                      A                      A                      A
 Frequencies --   1468.2371              1486.7401              1509.8768
 Red. masses --      1.2027                 2.8304                 2.3126
 Frc consts  --      1.5276                 3.6860                 3.1063
 IR Inten    --     51.5858                10.8614                 9.4527

                     70                     71                     72
                      A                      A                      A
 Frequencies --   1520.7908              1558.0012              1612.2367
 Red. masses --      3.0434                 3.6931                 6.1047
 Frc consts  --      4.1472                 5.2817                 9.3491
 IR Inten    --     71.5117                35.2876                87.0835

                     73                     74                     75
                      A                      A                      A
 Frequencies --   1668.2734              1678.2838              1707.2661
 Red. masses --      6.5071                 7.9008                 6.9835
 Frc consts  --     10.6702                13.1114                11.9930
 IR Inten    --    259.7745                13.3119                 9.9247

                     76                     77                     78
                      A                      A                      A
 Frequencies --   3053.9508              3057.5157              3142.3855
 Red. masses --      1.0389                 1.0421                 1.0996
 Frc consts  --      5.7091                 5.7397                 6.3971
 IR Inten    --     13.2908                19.4350                 3.9618

                     79                     80                     81
                      A                      A                      A
 Frequencies --   3145.0246              3172.4650              3176.3024
 Red. masses --      1.0958                 1.0679                 1.1034
 Frc consts  --      6.3862                 6.3324                 6.5591
 IR Inten    --      4.6711                 6.8043                 8.9260

                     82                     83                     84
                      A                      A                      A
 Frequencies --   3180.8306              3185.1817              3205.5006
 Red. masses --      1.0947                 1.0977                 1.0888
 Frc consts  --      6.5256                 6.5615                 6.5914
 IR Inten    --     10.5937                 8.9948                 4.7465

                     85                     86                     87
                      A                      A                      A
 Frequencies --   3218.5478              3219.7063              3233.2508
 Red. masses --      1.0925                 1.0922                 1.0968
 Frc consts  --      6.6678                 6.6711                 6.7555
 IR Inten    --      3.9791                 5.0291                 5.2971

                     88                     89                     90
                      A                      A                      A
 Frequencies --   3235.3361              3238.7798              3272.3652
 Red. masses --      1.0942                 1.0958                 1.1180
 Frc consts  --      6.7479                 6.7724                 7.0537
 IR Inten    --      0.9881                 3.7572                 0.6964

 - Thermochemistry -
 -------------------
 Temperature   298.150 Kelvin.  Pressure   1.00000 Atm.
 Atom     1 has atomic number  6 and mass  12.00000

 Molecular mass:   246.08114 amu.
 Principal axes and moments of inertia in atomic units:
                           1         2         3
     Eigenvalues --  2619.147645435.111017233.35265
           X            0.99976  -0.02151   0.00349
           Y            0.02147   0.99971   0.01094
           Z           -0.00372  -0.01087   0.99993
 This molecule is an asymmetric top.
 Rotational symmetry number  1.
 Warning -- assumption of classical behavior for rotation
           may cause significant error
 Rotational temperatures (Kelvin)      0.03307     0.01594     0.01197
 Rotational constants (GHZ):           0.68906     0.33205     0.24950
    1 imaginary frequencies ignored.
 Zero-point vibrational energy     679756.2 (Joules/Mol)
                                  162.46562 (Kcal/Mol)
 Warning -- explicit consideration of  25 degrees of freedom as
           vibrations may cause significant error
 Vibrational temperatures:     74.99   104.79   120.10   192.66   221.96
          (Kelvin)            270.43   278.45   300.39   309.39   324.19
                              403.06   430.65   480.41   499.21   535.26
                              564.22   587.80   630.93   679.07   702.57
                              709.26   763.69   775.40   843.93   889.83
                              954.39  1037.92  1082.82  1093.19  1143.57
                             1153.15  1165.99  1208.61  1284.37  1325.39
                             1333.93  1345.88  1384.79  1400.86  1412.95
                             1458.08  1459.78  1501.84  1505.81  1523.73
                             1531.61  1545.62  1550.59  1622.62  1658.95
                             1673.98  1743.65  1806.61  1809.60  1843.18
                             1924.72  1932.71  1940.34  1988.26  2030.85
                             2036.21  2058.12  2063.04  2070.28  2083.32
                             2112.46  2139.08  2172.37  2188.08  2241.61
                             2319.65  2400.27  2414.67  2456.37  4393.95
                             4399.08  4521.19  4524.98  4564.46  4569.99
                             4576.50  4582.76  4611.99  4630.77  4632.43
                             4651.92  4654.92  4659.88  4708.20

 Zero-point correction=                           0.258905 (Hartree/Particle)
 Thermal correction to Energy=                    0.273966
 Thermal correction to Enthalpy=                  0.274910
 Thermal correction to Gibbs Free Energy=         0.217323
 Sum of electronic and zero-point Energies=          -1114.812126
 Sum of electronic and thermal Energies=             -1114.797066
 Sum of electronic and thermal Enthalpies=           -1114.796122
 Sum of electronic and thermal Free Energies=        -1114.853708

                     E (Thermal)             CV                S
                      KCal/Mol        Cal/Mol-Kelvin    Cal/Mol-Kelvin
 Total                  171.916             59.953            121.201
 Electronic               0.000              0.000              0.000
 Translational            0.889              2.981             42.402
 Rotational               0.889              2.981             32.998
 Vibrational            170.139             53.991             45.801
 Vibration     1          0.596              1.977              4.735
 Vibration     2          0.599              1.967              4.075
 Vibration     3          0.600              1.961              3.808
 Vibration     4          0.613              1.919              2.889
 Vibration     5          0.620              1.898              2.619
 Vibration     6          0.633              1.856              2.248
 Vibration     7          0.635              1.849              2.194
 Vibration     8          0.642              1.827              2.054
 Vibration     9          0.645              1.818              2.000
 Vibration    10          0.650              1.802              1.916
 Vibration    11          0.680              1.710              1.533
 Vibration    12          0.692              1.675              1.421
 Vibration    13          0.715              1.608              1.241
 Vibration    14          0.725              1.581              1.180
 Vibration    15          0.744              1.530              1.071
 Vibration    16          0.760              1.487              0.992
 Vibration    17          0.773              1.452              0.932
 Vibration    18          0.799              1.386              0.831
 Vibration    19          0.829              1.312              0.732
 Vibration    20          0.844              1.276              0.688
 Vibration    21          0.849              1.266              0.676
 Vibration    22          0.886              1.182              0.585
 Vibration    23          0.894              1.164              0.568
 Vibration    24          0.944              1.060              0.473
 Vibration    25          0.978              0.993              0.419

 Normal termination of Gaussian 09 at Wed Sep 16 19:02:51 2020.
