 Gaussian 09, Revision D.01,
 Gaussian 09:  ES64L-G09RevD.01 24-Apr-2013

 ----------------------------------------------------------------------
 # opt freq scrf=(cpcm,solvent=toluene) geom=connectivity def2svp m062x
  empiricaldispersion=gd3
 ----------------------------------------------------------------------

 -------------------
 Title Card Required
 -------------------
 Symbolic Z-matrix:
 Charge =  0 Multiplicity = 1

 SCF Done:  E(RM062X) =  -1115.11900510     A.U. after   13 cycles
 SCF Done:  E(RM062X) =  -1115.11900619     A.U. after    8 cycles
 SCF Done:  E(RM062X) =  -1115.11900603     A.U. after    8 cycles
 SCF Done:  E(RM062X) =  -1115.11900617     A.U. after    7 cycles
 SCF Done:  E(RM062X) =  -1115.11900627     A.U. after    7 cycles
 Optimization completed.
    -- Stationary point found.
 Normal termination of Gaussian 09 at Wed Sep  9 12:15:56 2020.

 -------------------------------------------------------------------
 #N Geom=AllCheck Guess=TCheck SCRF=Check GenChk RM062X/def2SVP Freq
 -------------------------------------------------------------------

 Structure from the checkpoint file:  "m062x_pr_claisen_PM6_toluene_gd3.chk"
 -------------------
 Title Card Required
 -------------------
 Charge =  0 Multiplicity = 1

                         Standard orientation:
 ---------------------------------------------------------------------
 Center     Atomic      Atomic             Coordinates (Angstroms)
 Number     Number       Type             X           Y           Z
 ---------------------------------------------------------------------
      1          6           0        4.369839   -0.343256    0.062394
      2          6           0        3.402958    0.656824   -0.003731
      3          6           0        2.043963    0.326457   -0.059325
      4          6           0        1.675899   -1.035846   -0.049627
      5          6           0        2.654926   -2.030262    0.018720
      6          6           0        4.001900   -1.690298    0.075597
      7          1           0        5.424227   -0.065873    0.104650
      8          1           0        3.700135    1.704765   -0.013656
      9          1           0        2.326159   -3.070445    0.025267
     10          1           0        4.764118   -2.468311    0.130303
     11          6           0        0.245798   -1.450648   -0.109369
     12          6           0        0.978932    1.342965   -0.128172
     13          6           0       -0.825364   -0.373096   -0.158636
     14          6           0       -0.321314    1.034918   -0.181869
     15          1           0       -1.063914    1.834000   -0.236069
     16          8           0       -0.075629   -2.619076   -0.108464
     17         17           0        1.464411    3.019071   -0.140565
     18          6           0       -4.120166   -0.018996    0.061652
     19          6           0       -3.075983    0.252723    0.858911
     20          1           0       -3.105908    1.177176    1.444831
     21          6           0       -5.304272    0.904814   -0.023007
     22          1           0       -6.229400    0.375478    0.255878
     23          1           0       -5.188728    1.775970    0.634910
     24          1           0       -5.444092    1.262263   -1.055758
     25          6           0       -4.205395   -1.243990   -0.809134
     26          1           0       -3.337297   -1.908510   -0.714868
     27          1           0       -5.110186   -1.822954   -0.564430
     28          1           0       -4.298406   -0.950459   -1.867246
     29          6           0       -1.842379   -0.599487    0.991906
     30          1           0       -1.335887   -0.387080    1.945352
     31          1           0       -2.091853   -1.669587    0.991213
     32          1           0       -1.374983   -0.554964   -1.100912
 ---------------------------------------------------------------------

 SCF Done:  E(RM062X) =  -1115.11900627     A.U. after    1 cycles

 The electronic state is 1-A.
 Alpha  occ. eigenvalues -- -102.64497 -19.63167 -10.65150 -10.62374 -10.59291
 Alpha  occ. eigenvalues --  -10.57864 -10.57787 -10.57608 -10.57602 -10.57354
 Alpha  occ. eigenvalues --  -10.57246 -10.57110 -10.56402 -10.56112 -10.54995
 Alpha  occ. eigenvalues --  -10.54857 -10.54746  -9.81501  -7.54203  -7.53524
 Alpha  occ. eigenvalues --   -7.53522  -1.16258  -1.00111  -0.96002  -0.92997
 Alpha  occ. eigenvalues --   -0.90111  -0.86325  -0.85499  -0.82145  -0.78210
 Alpha  occ. eigenvalues --   -0.77544  -0.72919  -0.71421  -0.69270  -0.65895
 Alpha  occ. eigenvalues --   -0.60938  -0.59923  -0.58031  -0.57410  -0.55333
 Alpha  occ. eigenvalues --   -0.53470  -0.52406  -0.52041  -0.51181  -0.50947
 Alpha  occ. eigenvalues --   -0.50041  -0.49333  -0.48383  -0.47169  -0.46330
 Alpha  occ. eigenvalues --   -0.45149  -0.44819  -0.43824  -0.43338  -0.43058
 Alpha  occ. eigenvalues --   -0.42106  -0.41466  -0.40690  -0.39031  -0.37939
 Alpha  occ. eigenvalues --   -0.35018  -0.33290  -0.32348  -0.29745  -0.28563
 Alpha virt. eigenvalues --   -0.04386  -0.01043   0.04704   0.06730   0.07462
 Alpha virt. eigenvalues --    0.08992   0.10059   0.11128   0.12333   0.13484
 Alpha virt. eigenvalues --    0.14863   0.14908   0.16066   0.17155   0.17297

 Mulliken charges:
               1
     1  C    0.003155
     2  C   -0.075172
     3  C    0.071755
     4  C   -0.057102
     5  C   -0.038393
     6  C   -0.005882
     7  H    0.041487
     8  H    0.028776
     9  H    0.037232
    10  H    0.040034
    11  C    0.130153
    12  C    0.072768
    13  C   -0.053908
    14  C   -0.074371
    15  H    0.035933
    16  O   -0.242948
    17  Cl  -0.101448
    18  C   -0.214832
    19  C   -0.116354
    20  H    0.020261
    21  C   -0.010123
    22  H    0.052447
    23  H    0.043814
    24  H    0.051670
    25  C   -0.013258
    26  H    0.047374
    27  H    0.056254
    28  H    0.055761
    29  C    0.022339
    30  H    0.044928
    31  H    0.064913
    32  H    0.082738
 Sum of Mulliken charges =   0.00000

 Dipole moment (field-independent basis, Debye):
    X=              0.0558    Y=              0.9251    Z=             -0.2307  Tot=              0.9551
 Quadrupole moment (field-independent basis, Debye-Ang):
   XX=            -86.8785   YY=           -114.2818   ZZ=           -109.3782
   XY=             -4.5921   XZ=              2.9568   YZ=              0.4151

  Exact polarizability: 284.929  -0.772 206.149  15.382   3.375 116.272
 Approx polarizability: 271.892   9.311 230.785  16.491   3.368 137.156

                      1                      2                      3
                      A                      A                      A
 Frequencies --     14.6656                26.3074                50.2818
 Red. masses --      4.1669                 3.7124                 3.1853
 Frc consts  --      0.0005                 0.0015                 0.0047
 IR Inten    --      1.6904                 0.3111                 0.8210

                      4                      5                      6
                      A                      A                      A
 Frequencies --     83.7788               109.3144               118.3066
 Red. masses --      3.1163                 2.9626                 3.2988
 Frc consts  --      0.0129                 0.0209                 0.0272
 IR Inten    --      0.0904                 0.7268                 1.1483

                      7                      8                      9
                      A                      A                      A
 Frequencies --    131.1020               174.4417               190.0434
 Red. masses --      1.5738                 2.1848                 1.8185
 Frc consts  --      0.0159                 0.0392                 0.0387
 IR Inten    --      0.1377                 1.6061                 1.1752

                     10                     11                     12
                      A                      A                      A
 Frequencies --    215.9970               229.8708               292.1494
 Red. masses --      3.9403                 7.7188                 2.9897
 Frc consts  --      0.1083                 0.2403                 0.1503
 IR Inten    --      3.4437                 1.1108                 0.6573

                     13                     14                     15
                      A                      A                      A
 Frequencies --    315.2170               337.0566               369.2521
 Red. masses --      2.8857                 7.2092                 8.0933
 Frc consts  --      0.1689                 0.4826                 0.6502
 IR Inten    --      3.2733                15.1978                 0.6090

                     16                     17                     18
                      A                      A                      A
 Frequencies --    391.7476               407.1719               427.8441
 Red. masses --      2.5658                 3.9307                 2.9874
 Frc consts  --      0.2320                 0.3839                 0.3222
 IR Inten    --      0.5998                 4.8897                 0.4922

                     19                     20                     21
                      A                      A                      A
 Frequencies --    452.9691               473.4378               490.1834
 Red. masses --      3.0762                 5.3500                 2.5592
 Frc consts  --      0.3719                 0.7065                 0.3623
 IR Inten    --      7.0682                 0.8097                 0.0978

                     22                     23                     24
                      A                      A                      A
 Frequencies --    535.2205               556.4395               610.6116
 Red. masses --      5.0996                 3.2817                 3.5114
 Frc consts  --      0.8607                 0.5987                 0.7714
 IR Inten    --     11.6612                 7.6667                 3.5322

                     25                     26                     27
                      A                      A                      A
 Frequencies --    631.7456               641.5484               710.0839
 Red. masses --      3.6476                 5.2677                 4.1604
 Frc consts  --      0.8577                 1.2774                 1.2360
 IR Inten    --      8.0919                11.5287                13.4703

                     28                     29                     30
                      A                      A                      A
 Frequencies --    725.2584               782.4546               794.7195
 Red. masses --      5.3182                 3.0147                 2.7408
 Frc consts  --      1.6481                 1.0874                 1.0199
 IR Inten    --     10.0752                11.5187                 3.3327

                     31                     32                     33
                      A                      A                      A
 Frequencies --    801.7239               841.7760               867.2866
 Red. masses --      1.6014                 2.8549                 1.6857
 Frc consts  --      0.6064                 1.1919                 0.7470
 IR Inten    --     46.1896                 4.1772                27.9545

                     34                     35                     36
                      A                      A                      A
 Frequencies --    885.2857               916.3209               932.2682
 Red. masses --      1.3481                 2.1580                 1.4842
 Frc consts  --      0.6225                 1.0676                 0.7600
 IR Inten    --     16.9659                21.2984                 1.7792

                     37                     38                     39
                      A                      A                      A
 Frequencies --    949.9616               963.8421               987.6799
 Red. masses --      1.3652                 5.1498                 2.0163
 Frc consts  --      0.7259                 2.8187                 1.1589
 IR Inten    --      0.3443                58.0548                13.0224

                     40                     41                     42
                      A                      A                      A
 Frequencies --   1002.4170              1020.7836              1044.8844
 Red. masses --      1.3019                 1.3885                 2.2133
 Frc consts  --      0.7708                 0.8525                 1.4237
 IR Inten    --      6.3720                 2.1215                 4.2614

                     43                     44                     45
                      A                      A                      A
 Frequencies --   1051.8195              1072.4561              1078.1832
 Red. masses --      1.3877                 2.3500                 2.0254
 Frc consts  --      0.9046                 1.5925                 1.3872
 IR Inten    --      0.7419                31.6270                 5.3698

                     46                     47                     48
                      A                      A                      A
 Frequencies --   1090.9170              1113.8543              1131.3131
 Red. masses --      1.7476                 1.9243                 1.6046
 Frc consts  --      1.2254                 1.4066                 1.2100
 IR Inten    --      1.8577                27.4285                 9.2262

                     49                     50                     51
                      A                      A                      A
 Frequencies --   1141.3419              1159.5632              1161.3265
 Red. masses --      1.5531                 1.2660                 1.2449
 Frc consts  --      1.1921                 1.0029                 0.9892
 IR Inten    --      1.4486                11.4077                 3.7603

                     52                     53                     54
                      A                      A                      A
 Frequencies --   1207.4326              1244.3335              1255.7673
 Red. masses --      1.6652                 1.5286                 1.6416
 Frc consts  --      1.4304                 1.3945                 1.5253
 IR Inten    --      7.8481                 3.6111                 0.2614

                     55                     56                     57
                      A                      A                      A
 Frequencies --   1263.6730              1309.3366              1324.8235
 Red. masses --      1.7571                 2.0791                 1.3479
 Frc consts  --      1.6532                 2.1001                 1.3938
 IR Inten    --     24.9237                94.3378                 0.1273

                     58                     59                     60
                      A                      A                      A
 Frequencies --   1344.2351              1365.8450              1368.8360
 Red. masses --      1.4745                 2.3072                 4.1009
 Frc consts  --      1.5699                 2.5360                 4.5273
 IR Inten    --     35.4785                83.5221                 2.0192

                     61                     62                     63
                      A                      A                      A
 Frequencies --   1381.9603              1391.4854              1412.3972
 Red. masses --      2.9867                 1.2961                 1.8160
 Frc consts  --      3.3607                 1.4786                 2.1344
 IR Inten    --     41.7707                 1.9856                14.6282

                     64                     65                     66
                      A                      A                      A
 Frequencies --   1437.8464              1446.1630              1456.9343
 Red. masses --      1.0455                 1.0624                 1.0703
 Frc consts  --      1.2735                 1.3091                 1.3386
 IR Inten    --      0.6238                 9.2460                18.3367

                     67                     68                     69
                      A                      A                      A
 Frequencies --   1463.9570              1476.1054              1500.5019
 Red. masses --      1.0813                 1.0967                 3.0973
 Frc consts  --      1.3654                 1.4079                 4.1087
 IR Inten    --     15.0038                 4.0468                33.2259

                     70                     71                     72
                      A                      A                      A
 Frequencies --   1531.2979              1662.7282              1695.2117
 Red. masses --      3.3082                 7.3407                 6.9872
 Frc consts  --      4.5704                11.9572                11.8305
 IR Inten    --     10.7219                 2.2801                72.1814

                     73                     74                     75
                      A                      A                      A
 Frequencies --   1742.0615              1779.3582              1840.1069
 Red. masses --      9.1174                 7.5581                12.8132
 Frc consts  --     16.3023                14.0990                25.5620
 IR Inten    --     31.4149                15.2788               272.2250

                     76                     77                     78
                      A                      A                      A
 Frequencies --   3040.1047              3040.6994              3045.5130
 Red. masses --      1.0449                 1.0739                 1.0408
 Frc consts  --      5.6896                 5.8498                 5.6875
 IR Inten    --     24.7757                 9.2118                28.8951

                     79                     80                     81
                      A                      A                      A
 Frequencies --   3079.8987              3114.8859              3116.7378
 Red. masses --      1.0638                 1.1019                 1.1007
 Frc consts  --      5.9457                 6.2991                 6.2999
 IR Inten    --     18.1560                 8.2618                21.4269

                     82                     83                     84
                      A                      A                      A
 Frequencies --   3141.9277              3154.5495              3162.6530
 Red. masses --      1.1036                 1.1045                 1.1019
 Frc consts  --      6.4188                 6.4755                 6.4936
 IR Inten    --     10.1556                14.7368                11.5361

                     85                     86                     87
                      A                      A                      A
 Frequencies --   3171.3715              3207.9134              3211.9551
 Red. masses --      1.0918                 1.0933                 1.0884
 Frc consts  --      6.4695                 6.6287                 6.6154
 IR Inten    --     20.7892                 2.9458                 1.9731

                     88                     89                     90
                      A                      A                      A
 Frequencies --   3224.2104              3233.9939              3245.0768
 Red. masses --      1.0941                 1.0976                 1.0952
 Frc consts  --      6.7010                 6.7633                 6.7951
 IR Inten    --      3.8919                 4.9786                 1.0323

 - Thermochemistry -
 -------------------
 Temperature   298.150 Kelvin.  Pressure   1.00000 Atm.
 Atom     1 has atomic number  6 and mass  12.00000

 Molecular mass:   246.08114 amu.
 Principal axes and moments of inertia in atomic units:
                           1         2         3
     Eigenvalues --  2541.537917210.122049431.79735
           X            0.99992  -0.01219   0.00414
           Y            0.01217   0.99991   0.00549
           Z           -0.00421  -0.00544   0.99998
 This molecule is an asymmetric top.
 Rotational symmetry number  1.
 Warning -- assumption of classical behavior for rotation
           may cause significant error
 Rotational temperatures (Kelvin)      0.03408     0.01201     0.00918
 Rotational constants (GHZ):           0.71010     0.25031     0.19135
 Zero-point vibrational energy     685448.9 (Joules/Mol)
                                  163.82623 (Kcal/Mol)
 Warning -- explicit consideration of  24 degrees of freedom as
           vibrations may cause significant error
 Vibrational temperatures:     21.10    37.85    72.34   120.54   157.28
          (Kelvin)            170.22   188.63   250.98   273.43   310.77
                              330.73   420.34   453.53   484.95   531.27
                              563.64   585.83   615.57   651.72   681.17
                              705.26   770.06   800.59   878.53   908.94
                              923.04  1021.65  1043.48  1125.78  1143.42
                             1153.50  1211.13  1247.83  1273.73  1318.38
                             1341.32  1366.78  1386.75  1421.05  1442.25
                             1468.68  1503.35  1513.33  1543.02  1551.26
                             1569.58  1602.59  1627.71  1642.13  1668.35
                             1670.89  1737.22  1790.32  1806.77  1818.14
                             1883.84  1906.12  1934.05  1965.14  1969.45
                             1988.33  2002.03  2032.12  2068.74  2080.70
                             2096.20  2106.30  2123.78  2158.88  2203.19
                             2392.29  2439.03  2506.43  2560.10  2647.50
                             4374.03  4374.88  4381.81  4431.28  4481.62
                             4484.28  4520.53  4538.69  4550.35  4562.89
                             4615.47  4621.28  4638.91  4652.99  4668.94

 Zero-point correction=                           0.261074 (Hartree/Particle)
 Thermal correction to Energy=                    0.276992
 Thermal correction to Enthalpy=                  0.277936
 Thermal correction to Gibbs Free Energy=         0.215409
 Sum of electronic and zero-point Energies=          -1114.857933
 Sum of electronic and thermal Energies=             -1114.842014
 Sum of electronic and thermal Enthalpies=           -1114.841070
 Sum of electronic and thermal Free Energies=        -1114.903597

                     E (Thermal)             CV                S
                      KCal/Mol        Cal/Mol-Kelvin    Cal/Mol-Kelvin
 Total                  173.815             60.325            131.598
 Electronic               0.000              0.000              0.000
 Translational            0.889              2.981             42.402
 Rotational               0.889              2.981             33.513
 Vibrational            172.038             54.363             55.683
 Vibration     1          0.593              1.986              7.250
 Vibration     2          0.593              1.985              6.090
 Vibration     3          0.595              1.977              4.806
 Vibration     4          0.601              1.960              3.800
 Vibration     5          0.606              1.942              3.281
 Vibration     6          0.608              1.934              3.128
 Vibration     7          0.612              1.922              2.930
 Vibration     8          0.627              1.874              2.387
 Vibration     9          0.633              1.854              2.227
 Vibration    10          0.645              1.817              1.992
 Vibration    11          0.652              1.795              1.880
 Vibration    12          0.688              1.688              1.461
 Vibration    13          0.703              1.645              1.335
 Vibration    14          0.718              1.601              1.226
 Vibration    15          0.742              1.535              1.083
 Vibration    16          0.759              1.488              0.993
 Vibration    17          0.772              1.455              0.937
 Vibration    18          0.789              1.410              0.866
 Vibration    19          0.812              1.354              0.787
 Vibration    20          0.830              1.309              0.728
 Vibration    21          0.846              1.272              0.683
 Vibration    22          0.890              1.172              0.576
 Vibration    23          0.912              1.126              0.531
 Vibration    24          0.970              1.009              0.432

 Normal termination of Gaussian 09 at Wed Sep  9 12:32:04 2020.
