 Gaussian 09, Revision D.01,
 Gaussian 09:  ES64L-G09RevD.01 24-Apr-2013

 ----------------------------------------------------------------------
 # opt freq scrf=(cpcm,solvent=toluene) geom=connectivity def2svp m062x
  empiricaldispersion=gd3
 ----------------------------------------------------------------------

 -------------------
 Title Card Required
 -------------------
 Symbolic Z-matrix:
 Charge =  0 Multiplicity = 1

 SCF Done:  E(RM062X) =  -1115.12072675     A.U. after   14 cycles
 Optimization completed.
    -- Stationary point found.

 1\1\GINC-D8S0B4\FOpt\RM062X\def2SVP\C15H15Cl1O1\CHMKSH\09-Sep-2020\0\\
 # opt freq scrf=(cpcm,solvent=toluene) geom=connectivity def2svp m062x
  empiricaldispersion=gd3\\Title Card Required\\0,1\C,-2.834354,2.49667
 7,0.153943\C,-3.014619,1.136644,0.06932\C,-1.899609,0.258598,0.014019\
 C,-0.586596,0.813143,0.046695\C,-0.432503,2.221922,0.131314\C,-1.53136
 2,3.046422,0.184836\H,-3.702309,3.156305,0.195581\H,-4.017451,0.711243
 ,0.044044\H,0.577112,2.629738,0.153719\H,-1.399787,4.127369,0.249974\C
 ,0.559411,-0.052789,-0.003623\C,-2.027328,-1.159869,-0.074935\C,0.3809

 Normal termination of Gaussian 09 at Wed Sep  9 12:03:16 2020.

 -------------------------------------------------------------------
 #N Geom=AllCheck Guess=TCheck SCRF=Check GenChk RM062X/def2SVP Freq
 -------------------------------------------------------------------

 Structure from the checkpoint file:  "m062x_sm_claisen_PM6_toluene_gd3.chk"
 -------------------
 Title Card Required
 -------------------
 Charge =  0 Multiplicity = 1

                         Standard orientation:
 ---------------------------------------------------------------------
 Center     Atomic      Atomic             Coordinates (Angstroms)
 Number     Number       Type             X           Y           Z
 ---------------------------------------------------------------------
      1          6           0       -2.834354    2.496677    0.153943
      2          6           0       -3.014619    1.136644    0.069320
      3          6           0       -1.899609    0.258598    0.014019
      4          6           0       -0.586596    0.813143    0.046695
      5          6           0       -0.432503    2.221922    0.131314
      6          6           0       -1.531362    3.046422    0.184836
      7          1           0       -3.702309    3.156305    0.195581
      8          1           0       -4.017451    0.711243    0.044044
      9          1           0        0.577112    2.629738    0.153719
     10          1           0       -1.399787    4.127369    0.249974
     11          6           0        0.559411   -0.052789   -0.003623
     12          6           0       -2.027328   -1.159869   -0.074935
     13          6           0        0.380979   -1.417842   -0.076040
     14          1           0        1.232848   -2.092353   -0.079311
     15          6           0       -0.922381   -1.967482   -0.118862
     16          1           0       -1.048242   -3.048590   -0.178873
     17          8           0        1.746209    0.590010    0.061194
     18         17           0       -3.614090   -1.885262   -0.121092
     19          6           0        3.000115    0.015837   -0.329642
     20          6           0        3.489400   -1.000377    0.681784
     21          1           0        4.335432   -1.611208    0.348264
     22          6           0        2.937800   -0.562046   -1.745736
     23          1           0        3.955951   -0.813107   -2.073666
     24          1           0        2.325017   -1.467723   -1.818304
     25          1           0        2.529060    0.194304   -2.430568
     26          6           0        3.957019    1.209756   -0.313855
     27          1           0        3.932849    1.683984    0.676082
     28          1           0        4.983223    0.880455   -0.524867
     29          1           0        3.651893    1.943099   -1.073894
     30          6           0        3.009385   -1.134920    1.915489
     31          1           0        3.434010   -1.858781    2.613127
     32          1           0        2.168115   -0.527404    2.259464
 ---------------------------------------------------------------------

 SCF Done:  E(RM062X) =  -1115.12072675     A.U. after    1 cycles

 The electronic state is 1-A.
 Alpha  occ. eigenvalues -- -102.63806 -19.66743 -10.62904 -10.62836 -10.61036
 Alpha  occ. eigenvalues --  -10.57832 -10.57278 -10.57058 -10.56337 -10.56326
 Alpha  occ. eigenvalues --  -10.56248 -10.56220 -10.56130 -10.56109 -10.55535
 Alpha  occ. eigenvalues --  -10.55415 -10.55200  -9.80800  -7.53501  -7.52826
 Alpha  occ. eigenvalues --   -7.52826  -1.18597  -0.99635  -0.95213  -0.92704
 Alpha  occ. eigenvalues --   -0.90428  -0.85013  -0.83844  -0.83771  -0.80174
 Alpha  occ. eigenvalues --   -0.77784  -0.72259  -0.70825  -0.69492  -0.67604
 Alpha  occ. eigenvalues --   -0.63261  -0.60044  -0.58624  -0.57436  -0.56402
 Alpha  occ. eigenvalues --   -0.54651  -0.53821  -0.51481  -0.50521  -0.50114
 Alpha  occ. eigenvalues --   -0.49869  -0.48668  -0.48333  -0.46984  -0.46251
 Alpha  occ. eigenvalues --   -0.45362  -0.44934  -0.44549  -0.43517  -0.42266
 Alpha  occ. eigenvalues --   -0.41485  -0.40706  -0.40413  -0.38336  -0.37303
 Alpha  occ. eigenvalues --   -0.36517  -0.32611  -0.32594  -0.30639  -0.25701
 Alpha virt. eigenvalues --   -0.01676   0.00648   0.04033   0.06301   0.09088
 Alpha virt. eigenvalues --    0.09402   0.11509   0.12183   0.12936   0.13609
 Alpha virt. eigenvalues --    0.14143   0.15330   0.15791   0.16555   0.16796

 Mulliken charges:
               1
     1  C   -0.011174
     2  C   -0.058577
     3  C    0.038386
     4  C   -0.036364
     5  C   -0.031750
     6  C   -0.013565
     7  H    0.032852
     8  H    0.021221
     9  H    0.024286
    10  H    0.031745
    11  C    0.249218
    12  C    0.034641
    13  C   -0.127770
    14  H    0.026816
    15  C   -0.014390
    16  H    0.024306
    17  O   -0.359075
    18  Cl  -0.110715
    19  C   -0.071830
    20  C   -0.081791
    21  H    0.043207
    22  C   -0.017227
    23  H    0.055395
    24  H    0.055036
    25  H    0.058971
    26  C    0.027071
    27  H    0.048639
    28  H    0.046034
    29  H    0.052115
    30  C   -0.065419
    31  H    0.062212
    32  H    0.067494
 Sum of Mulliken charges =   0.00000

 Dipole moment (field-independent basis, Debye):
    X=              3.4046    Y=              0.2523    Z=             -0.6145  Tot=              3.4688
 Quadrupole moment (field-independent basis, Debye-Ang):
   XX=            -98.7434   YY=            -99.7531   ZZ=           -109.7533
   XY=             -7.6440   XZ=             -3.0684   YZ=             -0.0976

  Exact polarizability: 251.142 -10.019 233.322  -6.683   1.708 127.599
 Approx polarizability: 257.127  -7.689 260.467  -7.777   4.492 144.757

                      1                      2                      3
                      A                      A                      A
 Frequencies --     35.4794                55.3425                93.3870
 Red. masses --      4.1992                 4.2329                 2.2640
 Frc consts  --      0.0031                 0.0076                 0.0116
 IR Inten    --      0.8164                 0.1216                 0.2401

                      4                      5                      6
                      A                      A                      A
 Frequencies --    117.0224               125.6084               152.1972
 Red. masses --      4.3361                 4.2453                 3.7607
 Frc consts  --      0.0350                 0.0395                 0.0513
 IR Inten    --      0.4091                 0.0087                 0.8473

                      7                      8                      9
                      A                      A                      A
 Frequencies --    185.0384               196.3608               211.5744
 Red. masses --      3.7346                 4.0885                 1.1586
 Frc consts  --      0.0753                 0.0929                 0.0306
 IR Inten    --      1.8677                 1.2617                 0.3960

                     10                     11                     12
                      A                      A                      A
 Frequencies --    229.0322               261.4444               278.0010
 Red. masses --      6.7347                 1.2535                 2.1810
 Frc consts  --      0.2081                 0.0505                 0.0993
 IR Inten    --      1.2933                 0.1938                 1.1636

                     13                     14                     15
                      A                      A                      A
 Frequencies --    323.0279               333.9683               363.1122
 Red. masses --      2.3619                 3.7531                 3.4090
 Frc consts  --      0.1452                 0.2466                 0.2648
 IR Inten    --      0.8655                 1.9723                 1.3297

                     16                     17                     18
                      A                      A                      A
 Frequencies --    383.6688               418.4032               427.3708
 Red. masses --      3.3623                 4.2320                 3.3064
 Frc consts  --      0.2916                 0.4365                 0.3558
 IR Inten    --      0.7280                 2.8273                 5.3908

                     19                     20                     21
                      A                      A                      A
 Frequencies --    451.5739               487.3971               495.5088
 Red. masses --      3.1468                 3.4284                 4.8355
 Frc consts  --      0.3781                 0.4799                 0.6995
 IR Inten    --      0.2129                 0.2192                 2.5816

                     22                     23                     24
                      A                      A                      A
 Frequencies --    532.9252               562.3156               604.9037
 Red. masses --      5.7848                 4.0316                 4.1118
 Frc consts  --      0.9680                 0.7511                 0.8864
 IR Inten    --      3.8841                 2.0486                 3.4159

                     25                     26                     27
                      A                      A                      A
 Frequencies --    615.2744               663.1348               672.5954
 Red. masses --      3.1946                 3.9291                 3.9868
 Frc consts  --      0.7125                 1.0180                 1.0626
 IR Inten    --      3.9649                11.0348                11.5139

                     28                     29                     30
                      A                      A                      A
 Frequencies --    699.6808               755.0034               778.1160
 Red. masses --      2.0729                 5.0203                 3.2199
 Frc consts  --      0.5979                 1.6861                 1.1486
 IR Inten    --     19.4336                18.1592                 8.9206

                     31                     32                     33
                      A                      A                      A
 Frequencies --    795.9285               807.2866               815.2583
 Red. masses --      1.5032                 4.1570                 2.9271
 Frc consts  --      0.5611                 1.5962                 1.1462
 IR Inten    --     55.8240                 2.2526                 4.9083

                     34                     35                     36
                      A                      A                      A
 Frequencies --    873.0029               907.2911               916.6424
 Red. masses --      1.3510                 1.7425                 2.2753
 Frc consts  --      0.6066                 0.8451                 1.1264
 IR Inten    --     44.8296                 1.5121                24.6530

                     37                     38                     39
                      A                      A                      A
 Frequencies --    937.6797               958.6944               971.0167
 Red. masses --      1.4176                 2.3345                 1.2974
 Frc consts  --      0.7344                 1.2642                 0.7208
 IR Inten    --      0.9785                20.2479                55.3470

                     40                     41                     42
                      A                      A                      A
 Frequencies --    980.0212               984.9229              1006.6508
 Red. masses --      1.5244                 2.7394                 1.2882
 Frc consts  --      0.8626                 1.5657                 0.7691
 IR Inten    --      3.5026                12.4821                 1.6866

                     43                     44                     45
                      A                      A                      A
 Frequencies --   1012.1114              1030.4140              1037.8569
 Red. masses --      1.3550                 1.2843                 1.2553
 Frc consts  --      0.8178                 0.8034                 0.7967
 IR Inten    --      0.3922                 9.3747                18.0992

                     46                     47                     48
                      A                      A                      A
 Frequencies --   1044.5416              1063.1688              1099.1260
 Red. masses --      1.3443                 2.2171                 2.1300
 Frc consts  --      0.8642                 1.4766                 1.5161
 IR Inten    --      0.0350                21.4739                51.9417

                     49                     50                     51
                      A                      A                      A
 Frequencies --   1157.5458              1161.3332              1188.7292
 Red. masses --      1.5574                 1.1449                 1.5909
 Frc consts  --      1.2295                 0.9098                 1.3246
 IR Inten    --      4.8374                 7.4206                 1.6447

                     52                     53                     54
                      A                      A                      A
 Frequencies --   1216.5565              1221.6433              1229.7364
 Red. masses --      2.4863                 1.9284                 2.9044
 Frc consts  --      2.1681                 1.6957                 2.5878
 IR Inten    --    109.4530                33.4502                47.2016

                     55                     56                     57
                      A                      A                      A
 Frequencies --   1265.5810              1267.7712              1299.2232
 Red. masses --      2.1076                 1.9181                 2.7269
 Frc consts  --      1.9889                 1.8164                 2.7120
 IR Inten    --    140.8980                48.8441               158.1374

                     58                     59                     60
                      A                      A                      A
 Frequencies --   1305.3689              1374.6588              1379.9794
 Red. masses --      1.4378                 1.4490                 3.4327
 Frc consts  --      1.4435                 1.6133                 3.8515
 IR Inten    --      2.2949                15.1109                17.0646

                     61                     62                     63
                      A                      A                      A
 Frequencies --   1391.8522              1416.8501              1419.9138
 Red. masses --      1.2813                 2.7770                 1.1989
 Frc consts  --      1.4624                 3.2845                 1.4242
 IR Inten    --     31.0420               237.6994                15.7379

                     64                     65                     66
                      A                      A                      A
 Frequencies --   1441.8930              1444.6807              1449.1200
 Red. masses --      1.1176                 5.1806                 1.0488
 Frc consts  --      1.3690                 6.3706                 1.2976
 IR Inten    --      3.2459                52.6501                 2.1661

                     67                     68                     69
                      A                      A                      A
 Frequencies --   1463.6966              1469.9370              1476.0891
 Red. masses --      1.0969                 2.7524                 1.0833
 Frc consts  --      1.3846                 3.5039                 1.3907
 IR Inten    --     10.3448                35.1920                 4.7914

                     70                     71                     72
                      A                      A                      A
 Frequencies --   1507.3569              1578.3186              1670.3096
 Red. masses --      3.3510                 4.8820                 8.2320
 Frc consts  --      4.4860                 7.1654                13.5315
 IR Inten    --    120.1494                41.9162                51.8428

                     73                     74                     75
                      A                      A                      A
 Frequencies --   1682.5125              1719.5757              1749.8901
 Red. masses --      6.5410                 7.2465                 5.4962
 Frc consts  --     10.9097                12.6248                 9.9159
 IR Inten    --     97.6077                 8.6470                 2.8993

                     76                     77                     78
                      A                      A                      A
 Frequencies --   3057.0169              3071.8426              3156.9471
 Red. masses --      1.0352                 1.0378                 1.1057
 Frc consts  --      5.6997                 5.7697                 6.4924
 IR Inten    --     13.2646                11.5680                 8.9975

                     79                     80                     81
                      A                      A                      A
 Frequencies --   3161.8454              3162.9568              3168.0004
 Red. masses --      1.0925                 1.0731                 1.1044
 Frc consts  --      6.4351                 6.3254                 6.5305
 IR Inten    --     11.0231                 5.7782                16.9391

                     82                     83                     84
                      A                      A                      A
 Frequencies --   3176.5578              3182.4089              3209.4746
 Red. masses --      1.0948                 1.1035                 1.0884
 Frc consts  --      6.5085                 6.5845                 6.6056
 IR Inten    --      8.6466                11.7262                 4.9221

                     85                     86                     87
                      A                      A                      A
 Frequencies --   3221.6992              3225.7397              3237.0160
 Red. masses --      1.0930                 1.0936                 1.0961
 Frc consts  --      6.6841                 6.7048                 6.7672
 IR Inten    --      6.0673                 1.8939                 2.3145

                     88                     89                     90
                      A                      A                      A
 Frequencies --   3242.4219              3269.5424              3270.2389
 Red. masses --      1.0963                 1.0934                 1.1180
 Frc consts  --      6.7909                 6.8865                 7.0443
 IR Inten    --      4.5911                 4.0621                 4.3382

 - Thermochemistry -
 -------------------
 Temperature   298.150 Kelvin.  Pressure   1.00000 Atm.
 Atom     1 has atomic number  6 and mass  12.00000

 Molecular mass:   246.08114 amu.
 Principal axes and moments of inertia in atomic units:
                           1         2         3
     Eigenvalues --  2563.152176344.403068062.61323
           X            0.99967  -0.02511  -0.00558
           Y            0.02509   0.99968  -0.00299
           Z            0.00565   0.00285   0.99998
 This molecule is an asymmetric top.
 Rotational symmetry number  1.
 Warning -- assumption of classical behavior for rotation
           may cause significant error
 Rotational temperatures (Kelvin)      0.03379     0.01365     0.01074
 Rotational constants (GHZ):           0.70411     0.28446     0.22384
 Zero-point vibrational energy     684945.3 (Joules/Mol)
                                  163.70586 (Kcal/Mol)
 Warning -- explicit consideration of  25 degrees of freedom as
           vibrations may cause significant error
 Vibrational temperatures:     51.05    79.63   134.36   168.37   180.72
          (Kelvin)            218.98   266.23   282.52   304.41   329.53
                              376.16   399.98   464.76   480.51   522.44
                              552.01   601.99   614.89   649.71   701.25
                              712.93   766.76   809.05   870.32   885.24
                              954.10   967.71  1006.68  1086.28  1119.53
                             1145.16  1161.50  1172.97  1256.05  1305.39
                             1318.84  1349.11  1379.35  1397.07  1410.03
                             1417.08  1448.34  1456.20  1482.53  1493.24
                             1502.86  1529.66  1581.40  1665.45  1670.90
                             1710.31  1750.35  1757.67  1769.31  1820.89
                             1824.04  1869.29  1878.13  1977.82  1985.48
                             2002.56  2038.53  2042.94  2074.56  2078.57
                             2084.96  2105.93  2114.91  2123.76  2168.75
                             2270.85  2403.20  2420.76  2474.08  2517.70
                             4398.36  4419.69  4542.14  4549.18  4550.78
                             4558.04  4570.35  4578.77  4617.71  4635.30
                             4641.11  4657.34  4665.12  4704.14  4705.14

 Zero-point correction=                           0.260882 (Hartree/Particle)
 Thermal correction to Energy=                    0.276351
 Thermal correction to Enthalpy=                  0.277295
 Thermal correction to Gibbs Free Energy=         0.218171
 Sum of electronic and zero-point Energies=          -1114.859845
 Sum of electronic and thermal Energies=             -1114.844376
 Sum of electronic and thermal Enthalpies=           -1114.843431
 Sum of electronic and thermal Free Energies=        -1114.902556

                     E (Thermal)             CV                S
                      KCal/Mol        Cal/Mol-Kelvin    Cal/Mol-Kelvin
 Total                  173.413             60.841            124.437
 Electronic               0.000              0.000              0.000
 Translational            0.889              2.981             42.402
 Rotational               0.889              2.981             33.238
 Vibrational            171.635             54.880             48.797
 Vibration     1          0.594              1.982              5.497
 Vibration     2          0.596              1.975              4.617
 Vibration     3          0.602              1.954              3.588
 Vibration     4          0.608              1.935              3.149
 Vibration     5          0.611              1.927              3.012
 Vibration     6          0.619              1.900              2.645
 Vibration     7          0.631              1.860              2.277
 Vibration     8          0.636              1.845              2.167
 Vibration     9          0.643              1.823              2.030
 Vibration    10          0.652              1.797              1.887
 Vibration    11          0.669              1.743              1.652
 Vibration    12          0.679              1.714              1.546
 Vibration    13          0.708              1.629              1.295
 Vibration    14          0.715              1.608              1.241
 Vibration    15          0.737              1.548              1.109
 Vibration    16          0.753              1.505              1.025
 Vibration    17          0.781              1.430              0.897
 Vibration    18          0.789              1.411              0.867
 Vibration    19          0.810              1.357              0.791
 Vibration    20          0.843              1.278              0.690
 Vibration    21          0.851              1.260              0.669
 Vibration    22          0.888              1.177              0.581
 Vibration    23          0.918              1.113              0.519
 Vibration    24          0.963              1.021              0.441
 Vibration    25          0.975              1.000              0.424

 Optimization completed.
    -- Stationary point found.

 1\1\GINC-D8S0B4\Freq\RM062X\def2SVP\C15H15Cl1O1\CHMKSH\09-Sep-2020\0\\
 #N Geom=AllCheck Guess=TCheck SCRF=Check GenChk RM062X/def2SVP Freq\\T
 itle Card Required\\0,1\C,-2.834354,2.496677,0.153943\C,-3.014619,1.13
 6644,0.06932\C,-1.899609,0.258598,0.014019\C,-0.586596,0.813143,0.0466
 95\C,-0.432503,2.221922,0.131314\C,-1.531362,3.046422,0.184836\H,-3.70
 2309,3.156305,0.195581\H,-4.017451,0.711243,0.044044\H,0.577112,2.6297
 38,0.153719\H,-1.399787,4.127369,0.249974\C,0.559411,-0.052789,-0.0036
 23\C,-2.027328,-1.159869,-0.074935\C,0.380979,-1.417842,-0.07604\H,1.2

 Normal termination of Gaussian 09 at Wed Sep  9 12:25:45 2020.
