 Gaussian 09, Revision D.01,
 Gaussian 09:  ES64L-G09RevD.01 24-Apr-2013

 ----------------------------------------------------------------------
 # opt freq b3lyp/6-31+g(d,p) scrf=(cpcm,solvent=toluene) geom=connecti
 vity empiricaldispersion=gd3
 ----------------------------------------------------------------------

 -------------------
 Title Card Required
 -------------------
 Symbolic Z-matrix:
 Charge =  0 Multiplicity = 1

 SCF Done:  E(RB3LYP) =  -872.206432025     A.U. after   15 cycles
 SCF Done:  E(RB3LYP) =  -872.209354189     A.U. after   13 cycles
 SCF Done:  E(RB3LYP) =  -872.210528767     A.U. after   13 cycles
 SCF Done:  E(RB3LYP) =  -872.212120119     A.U. after   12 cycles
 SCF Done:  E(RB3LYP) =  -872.212773909     A.U. after   11 cycles
 SCF Done:  E(RB3LYP) =  -872.213146725     A.U. after   11 cycles
 SCF Done:  E(RB3LYP) =  -872.213416682     A.U. after   12 cycles
 SCF Done:  E(RB3LYP) =  -872.213583551     A.U. after   11 cycles
 SCF Done:  E(RB3LYP) =  -872.213754247     A.U. after   11 cycles
 SCF Done:  E(RB3LYP) =  -872.213940325     A.U. after   11 cycles
 SCF Done:  E(RB3LYP) =  -872.214818243     A.U. after    9 cycles
 SCF Done:  E(RB3LYP) =  -872.214815787     A.U. after   10 cycles
 SCF Done:  E(RB3LYP) =  -872.214812551     A.U. after   10 cycles
 SCF Done:  E(RB3LYP) =  -872.214811863     A.U. after    9 cycles
 SCF Done:  E(RB3LYP) =  -872.214811217     A.U. after    9 cycles
 SCF Done:  E(RB3LYP) =  -872.214810911     A.U. after    8 cycles
 SCF Done:  E(RB3LYP) =  -872.214810847     A.U. after    8 cycles
 SCF Done:  E(RB3LYP) =  -872.214810909     A.U. after    8 cycles
 SCF Done:  E(RB3LYP) =  -872.214811014     A.U. after    7 cycles
 Optimization completed.
    -- Stationary point found.
 Normal termination of Gaussian 09 at Thu Sep 17 16:20:00 2020.

 ----------------------------------------------------------------------
 #N Geom=AllCheck Guess=TCheck SCRF=Check GenChk RB3LYP/6-31+G(d,p) Fre
 q
 ----------------------------------------------------------------------

 Structure from the checkpoint file:  "b3lyp_m062x_dmad_4H2O_cycloaddition_PM6_toluene.chk"
 -------------------
 Title Card Required
 -------------------
 Charge =  0 Multiplicity = 1

                         Standard orientation:
 ---------------------------------------------------------------------
 Center     Atomic      Atomic             Coordinates (Angstroms)
 Number     Number       Type             X           Y           Z
 ---------------------------------------------------------------------
      1          7           0        0.301252    0.341822   -0.540484
      2          7           0       -0.311475   -0.474636    0.162570
      3          6           0        1.742024    0.180231   -0.458354
      4          6           0       -1.759675   -0.291316    0.092135
      5          8           0       -2.362379   -0.211353   -0.955801
      6          8           0        2.399573    1.003843    0.142131
      7          8           0       -2.233957   -0.332783    1.317138
      8          8           0        2.138795   -0.854810   -1.158591
      9          6           0        3.565327   -1.164526   -1.122468
     10          1           0        3.679680   -2.015513   -1.790000
     11          1           0        4.143614   -0.308334   -1.471305
     12          1           0        3.831637   -1.427707   -0.098373
     13          6           0       -3.656294   -0.053052    1.466229
     14          1           0       -3.864648    0.935748    1.054957
     15          1           0       -4.241375   -0.815920    0.950793
     16          1           0       -3.835021   -0.079695    2.538880
     17          8           0        5.281262    1.321436    0.230726
     18          1           0        4.311825    1.281211    0.295502
     19          1           0        5.538204    2.152502    0.648601
     20          8           0        1.810403   -2.044795    1.584590
     21          1           0        1.851673   -1.918839    2.540973
     22          1           0        0.915800   -1.769961    1.323308
     23          8           0       -1.749500    2.528500    0.278994
     24          1           0       -1.291673    2.434670   -0.568237
     25          1           0       -1.122654    2.990147    0.851139
     26          8           0       -5.221247   -0.384544   -1.410950
     27          1           0       -4.254676   -0.283949   -1.376285
     28          1           0       -5.442711   -0.476629   -2.345699
 ---------------------------------------------------------------------

 SCF Done:  E(RB3LYP) =  -872.214811014     A.U. after    1 cycles

 The electronic state is 1-A.
 Alpha  occ. eigenvalues --  -19.24458 -19.24311 -19.19491 -19.19349 -19.17482
 Alpha  occ. eigenvalues --  -19.16400 -19.15452 -19.15372 -14.46097 -14.46017
 Alpha  occ. eigenvalues --  -10.38700 -10.38531 -10.25901 -10.25836  -1.17214
 Alpha  occ. eigenvalues --   -1.15845  -1.09504  -1.07327  -1.06697  -1.02728
 Alpha  occ. eigenvalues --   -1.01650  -1.00703  -1.00622  -0.83442  -0.76633
 Alpha  occ. eigenvalues --   -0.72678  -0.63258  -0.58978  -0.57645  -0.56121
 Alpha  occ. eigenvalues --   -0.54674  -0.54367  -0.54215  -0.52670  -0.51987
 Alpha  occ. eigenvalues --   -0.51234  -0.50774  -0.49245  -0.46510  -0.45989
 Alpha  occ. eigenvalues --   -0.45479  -0.42513  -0.41533  -0.40494  -0.40329
 Alpha  occ. eigenvalues --   -0.40010  -0.39315  -0.38060  -0.38004  -0.35589
 Alpha  occ. eigenvalues --   -0.34734  -0.34613  -0.33773  -0.32966  -0.32061
 Alpha  occ. eigenvalues --   -0.31110  -0.31036  -0.29066
 Alpha virt. eigenvalues --   -0.12730  -0.02789  -0.01388  -0.00303   0.00939
 Alpha virt. eigenvalues --    0.01558   0.02251   0.02592   0.03503   0.03686
 Alpha virt. eigenvalues --    0.04277   0.06785   0.06894   0.07187   0.07889

 Mulliken charges:
               1
     1  N   -0.006771
     2  N   -0.331246
     3  C    0.533505
     4  C    0.547522
     5  O   -0.521806
     6  O   -0.504112
     7  O   -0.220110
     8  O   -0.264191
     9  C   -0.206287
    10  H    0.170010
    11  H    0.186577
    12  H    0.199078
    13  C   -0.199259
    14  H    0.195949
    15  H    0.190677
    16  H    0.168151
    17  O   -0.796338
    18  H    0.423318
    19  H    0.373968
    20  O   -0.762229
    21  H    0.376499
    22  H    0.403047
    23  O   -0.725723
    24  H    0.384076
    25  H    0.383495
    26  O   -0.796534
    27  H    0.423530
    28  H    0.375206
 Sum of Mulliken charges =   0.00000

 Dipole moment (field-independent basis, Debye):
    X=              0.1799    Y=              0.9503    Z=              1.3298  Tot=              1.6444
 Quadrupole moment (field-independent basis, Debye-Ang):
   XX=           -106.3954   YY=            -82.4088   ZZ=            -71.1380
   XY=              4.5901   XZ=             -3.0306   YZ=              3.5441

  Exact polarizability: 158.819   3.115 108.517  -5.707   2.230 114.068
 Approx polarizability: 163.946   9.946 132.047  -0.308   3.566 146.487

                      1                      2                      3
                      A                      A                      A
 Frequencies --     11.2750                18.1450                22.4336
 Red. masses --      5.5558                 6.1993                 6.8493
 Frc consts  --      0.0004                 0.0012                 0.0020
 IR Inten    --      0.2967                 0.2854                 1.2614

                      4                      5                      6
                      A                      A                      A
 Frequencies --     37.8979                47.4807                55.7129
 Red. masses --      5.4985                 4.6116                 3.5478
 Frc consts  --      0.0047                 0.0061                 0.0065
 IR Inten    --      1.8723                 4.2041                13.9336

                      7                      8                      9
                      A                      A                      A
 Frequencies --     64.8665                68.3961                73.5524
 Red. masses --      4.8294                 3.6534                 4.0878
 Frc consts  --      0.0120                 0.0101                 0.0130
 IR Inten    --     11.1844                 4.3575                 5.7283

                     10                     11                     12
                      A                      A                      A
 Frequencies --     84.7187                92.1501                98.1149
 Red. masses --      2.9077                 1.9744                 2.1106
 Frc consts  --      0.0123                 0.0099                 0.0120
 IR Inten    --     13.6018                62.3161                50.3132

                     13                     14                     15
                      A                      A                      A
 Frequencies --    106.3508               107.8575               118.3537
 Red. masses --      2.1087                 1.3953                 4.8334
 Frc consts  --      0.0141                 0.0096                 0.0399
 IR Inten    --     68.1216               213.8034                25.9566

                     16                     17                     18
                      A                      A                      A
 Frequencies --    119.1041               126.6018               128.8488
 Red. masses --      1.8863                 2.5527                 4.9584
 Frc consts  --      0.0158                 0.0241                 0.0485
 IR Inten    --     27.4417                 8.7768                39.1992

                     19                     20                     21
                      A                      A                      A
 Frequencies --    149.3958               157.0157               169.3613
 Red. masses --      2.5346                 1.5728                 1.4813
 Frc consts  --      0.0333                 0.0228                 0.0250
 IR Inten    --     56.2980                 9.6974               132.1687

                     22                     23                     24
                      A                      A                      A
 Frequencies --    177.2017               185.5982               217.8906
 Red. masses --      1.2701                 1.7982                 1.4200
 Frc consts  --      0.0235                 0.0365                 0.0397
 IR Inten    --     19.7068                 7.0577               144.9991

                     25                     26                     27
                      A                      A                      A
 Frequencies --    239.2540               276.6588               284.9301
 Red. masses --      2.8124                 1.5136                 4.7709
 Frc consts  --      0.0949                 0.0683                 0.2282
 IR Inten    --     45.2154                95.1381                23.0249

                     28                     29                     30
                      A                      A                      A
 Frequencies --    294.2976               311.3504               326.5060
 Red. masses --      3.1016                 4.1514                 1.2174
 Frc consts  --      0.1583                 0.2371                 0.0765
 IR Inten    --      7.4430                38.2490               197.5150

                     31                     32                     33
                      A                      A                      A
 Frequencies --    341.6361               350.4553               464.5560
 Red. masses --      1.0845                 1.1069                 4.9936
 Frc consts  --      0.0746                 0.0801                 0.6349
 IR Inten    --    265.6959               112.2963                11.1178

                     34                     35                     36
                      A                      A                      A
 Frequencies --    483.9232               491.4235               495.7852
 Red. masses --      1.2986                 1.0832                 1.1722
 Frc consts  --      0.1792                 0.1541                 0.1698
 IR Inten    --    125.6133               256.4047                28.4159

                     37                     38                     39
                      A                      A                      A
 Frequencies --    536.3723               639.0334               695.7111
 Red. masses --      3.0099                 8.4712                 8.5368
 Frc consts  --      0.5102                 2.0382                 2.4345
 IR Inten    --     59.4092                 8.9483                14.5640

                     40                     41                     42
                      A                      A                      A
 Frequencies --    796.0373               834.2751               893.4619
 Red. masses --     10.7130                 6.8514                 6.5103
 Frc consts  --      3.9997                 2.8096                 3.0620
 IR Inten    --     47.0014                11.1641                87.0455

                     43                     44                     45
                      A                      A                      A
 Frequencies --    949.1698              1007.9754              1024.6557
 Red. masses --      9.1977                 9.2651                 9.3634
 Frc consts  --      4.8822                 5.5463                 5.7921
 IR Inten    --      5.6419                 4.8992                51.9354

                     46                     47                     48
                      A                      A                      A
 Frequencies --   1166.5286              1167.8805              1212.3453
 Red. masses --      1.2729                 1.2753                 1.4563
 Frc consts  --      1.0206                 1.0249                 1.2611
 IR Inten    --      0.9682                 0.8182                12.3239

                     49                     50                     51
                      A                      A                      A
 Frequencies --   1212.9095              1295.4006              1312.6996
 Red. masses --      1.4611                 6.3646                 6.5183
 Frc consts  --      1.2664                 6.2926                 6.6178
 IR Inten    --     29.4449              1151.8627                73.1597

                     52                     53                     54
                      A                      A                      A
 Frequencies --   1468.0618              1470.9381              1489.7228
 Red. masses --      1.1835                 1.1905                 1.0811
 Frc consts  --      1.5028                 1.5176                 1.4136
 IR Inten    --     32.7901                29.8289                24.4111

                     55                     56                     57
                      A                      A                      A
 Frequencies --   1492.6095              1493.2176              1493.6069
 Red. masses --      1.0493                 1.0458                 1.0633
 Frc consts  --      1.3773                 1.3739                 1.3976
 IR Inten    --     16.4520                14.4924                19.3686

                     58                     59                     60
                      A                      A                      A
 Frequencies --   1619.1637              1622.3201              1630.3201
 Red. masses --      1.0846                 1.0815                 1.0802
 Frc consts  --      1.6754                 1.6770                 1.6916
 IR Inten    --     83.8968                83.4771               136.0406

                     61                     62                     63
                      A                      A                      A
 Frequencies --   1630.4138              1674.6837              1790.7263
 Red. masses --      1.0791                13.6998                11.0505
 Frc consts  --      1.6901                22.6376                20.8781
 IR Inten    --     95.9013                 0.4239               211.8299

                     64                     65                     66
                      A                      A                      A
 Frequencies --   1801.5983              3081.1057              3084.6195
 Red. masses --     10.8595                 1.0282                 1.0278
 Frc consts  --     20.7672                 5.7509                 5.7619
 IR Inten    --    819.0041                17.9014                18.0621

                     67                     68                     69
                      A                      A                      A
 Frequencies --   3178.5931              3185.1269              3201.8729
 Red. masses --      1.1097                 1.1100                 1.1089
 Frc consts  --      6.6057                 6.6349                 6.6978
 IR Inten    --      2.9556                 2.4845                 7.7907

                     70                     71                     72
                      A                      A                      A
 Frequencies --   3205.2671              3709.6011              3711.2790
 Red. masses --      1.1091                 1.0534                 1.0533
 Frc consts  --      6.7136                 8.5410                 8.5476
 IR Inten    --      5.8845               736.6345               188.0817

                     73                     74                     75
                      A                      A                      A
 Frequencies --   3719.5487              3793.8073              3885.2798
 Red. masses --      1.0523                 1.0455                 1.0758
 Frc consts  --      8.5777                 8.8658                 9.5679
 IR Inten    --    148.6568                18.7599               141.0189

                     76                     77                     78
                      A                      A                      A
 Frequencies --   3887.7806              3888.3785              3902.7365
 Red. masses --      1.0750                 1.0752                 1.0818
 Frc consts  --      9.5734                 9.5776                 9.7082
 IR Inten    --    254.4810                66.0880                92.9045

 - Thermochemistry -
 -------------------
 Temperature   298.150 Kelvin.  Pressure   1.00000 Atm.
 Atom     1 has atomic number  7 and mass  14.00307

 Molecular mass:   218.07502 amu.
 Principal axes and moments of inertia in atomic units:
                           1         2         3
     Eigenvalues --  1806.876127582.344087836.23786
           X            1.00000  -0.00270  -0.00104
           Y            0.00272   0.99979   0.02020
           Z            0.00098  -0.02021   0.99980
 This molecule is an asymmetric top.
 Rotational symmetry number  1.
 Warning -- assumption of classical behavior for rotation
           may cause significant error
 Rotational temperatures (Kelvin)      0.04794     0.01142     0.01105
 Rotational constants (GHZ):           0.99882     0.23802     0.23031
 Zero-point vibrational energy     548224.2 (Joules/Mol)
                                  131.02874 (Kcal/Mol)
 Warning -- explicit consideration of  37 degrees of freedom as
           vibrations may cause significant error
 Vibrational temperatures:     16.22    26.11    32.28    54.53    68.31
          (Kelvin)             80.16    93.33    98.41   105.83   121.89
                              132.58   141.17   153.01   155.18   170.28
                              171.36   182.15   185.38   214.95   225.91
                              243.67   254.95   267.03   313.50   344.23
                              398.05   409.95   423.43   447.96   469.77
                              491.54   504.23   668.39   696.26   707.05
                              713.32   771.72   919.43  1000.97  1145.32
                             1200.33  1285.49  1365.64  1450.25  1474.25
                             1678.37  1680.32  1744.29  1745.10  1863.79
                             1888.68  2112.21  2116.35  2143.38  2147.53
                             2148.40  2148.96  2329.61  2334.15  2345.66
                             2345.80  2409.49  2576.45  2592.09  4433.02
                             4438.07  4573.28  4582.68  4606.78  4611.66
                             5337.28  5339.70  5351.59  5458.44  5590.04
                             5593.64  5594.50  5615.16

 Zero-point correction=                           0.208808 (Hartree/Particle)
 Thermal correction to Energy=                    0.234528
 Thermal correction to Enthalpy=                  0.235472
 Thermal correction to Gibbs Free Energy=         0.147984
 Sum of electronic and zero-point Energies=           -872.006003
 Sum of electronic and thermal Energies=              -871.980283
 Sum of electronic and thermal Enthalpies=            -871.979339
 Sum of electronic and thermal Free Energies=         -872.066827

                     E (Thermal)             CV                S
                      KCal/Mol        Cal/Mol-Kelvin    Cal/Mol-Kelvin
 Total                  147.168             78.696            184.134
 Electronic               0.000              0.000              0.000
 Translational            0.889              2.981             42.042
 Rotational               0.889              2.981             33.040
 Vibrational            145.391             72.734            109.052
 Vibration     1          0.593              1.987              7.773
 Vibration     2          0.593              1.986              6.827
 Vibration     3          0.593              1.985              6.406
 Vibration     4          0.594              1.982              5.366
 Vibration     5          0.595              1.979              4.920
 Vibration     6          0.596              1.975              4.604
 Vibration     7          0.597              1.971              4.303
 Vibration     8          0.598              1.969              4.199
 Vibration     9          0.599              1.966              4.056
 Vibration    10          0.601              1.960              3.778
 Vibration    11          0.602              1.955              3.614
 Vibration    12          0.604              1.950              3.491
 Vibration    13          0.605              1.944              3.334
 Vibration    14          0.606              1.943              3.307
 Vibration    15          0.609              1.934              3.127
 Vibration    16          0.609              1.933              3.115
 Vibration    17          0.611              1.927              2.997
 Vibration    18          0.611              1.924              2.963
 Vibration    19          0.618              1.903              2.680
 Vibration    20          0.621              1.895              2.585
 Vibration    21          0.625              1.880              2.443
 Vibration    22          0.628              1.870              2.358
 Vibration    23          0.632              1.860              2.271
 Vibration    24          0.646              1.814              1.977
 Vibration    25          0.657              1.780              1.808
 Vibration    26          0.678              1.717              1.554
 Vibration    27          0.683              1.702              1.504
 Vibration    28          0.689              1.684              1.449
 Vibration    29          0.700              1.652              1.355
 Vibration    30          0.710              1.623              1.277
 Vibration    31          0.721              1.592              1.205
 Vibration    32          0.727              1.574              1.164
 Vibration    33          0.822              1.329              0.753
 Vibration    34          0.840              1.286              0.700
 Vibration    35          0.847              1.269              0.680
 Vibration    36          0.851              1.259              0.669
 Vibration    37          0.891              1.170              0.573

 Normal termination of Gaussian 09 at Thu Sep 17 16:31:03 2020.
