 Gaussian 09, Revision D.01,
 Gaussian 09:  ES64L-G09RevD.01 24-Apr-2013

 ----------------------------------------------------------------------
 # freq b3lyp/6-31+g(d,p) scrf=(cpcm,solvent=toluene) empiricaldispersi
 on=gd3
 ----------------------------------------------------------------------

 ----
 freq
 ----
 Symbolic Z-matrix:
 Charge =  0 Multiplicity = 1

                         Standard orientation:
 ---------------------------------------------------------------------
 Center     Atomic      Atomic             Coordinates (Angstroms)
 Number     Number       Type             X           Y           Z
 ---------------------------------------------------------------------
      1          6           0        0.208509   -0.340613    1.259354
      2          6           0        0.702431   -1.795366    1.062705
      3          6           0       -1.606622   -1.937493    1.028159
      4          6           0       -1.285124   -0.523961    1.450915
      5          1           0        0.789198    0.433492    1.740997
      6          1           0       -1.994608    0.283353    1.561734
      7          6           0       -0.407143   -2.499176    0.273971
      8          1           0       -0.318852   -3.585274    0.363312
      9          1           0       -0.415072   -2.212812   -0.777949
     10          6           0        0.273984   -1.735098    2.461299
     11          1           0        0.916155   -1.554435    3.314100
     12          6           0       -1.209869   -1.724163    2.464047
     13          1           0       -1.841469   -1.801387    3.338111
     14          1           0        1.749748   -1.940059    0.820772
     15          1           0       -2.627994   -2.173670    0.755309
     16          7           0       -0.930234    0.334063   -1.179481
     17          7           0        0.190206    0.663723   -0.587422
     18          6           0       -1.986492    1.197905   -0.911472
     19          6           0        1.333244    0.014242   -1.145729
     20          8           0        1.345481   -0.809749   -2.046315
     21          8           0       -3.127034    0.959118   -1.310171
     22          8           0        2.411749    0.506852   -0.536576
     23          8           0       -1.685321    2.329442   -0.232798
     24          6           0       -2.788328    3.223117    0.021800
     25          1           0       -2.361865    4.055213    0.581827
     26          1           0       -3.220657    3.573010   -0.918457
     27          1           0       -3.559893    2.719565    0.609658
     28          6           0        3.706900    0.040807   -0.984156
     29          1           0        3.824099   -1.019699   -0.749732
     30          1           0        3.803493    0.193957   -2.061605
     31          1           0        4.416700    0.655821   -0.435021
     32          8           0        3.913149    2.661646    0.930223
     33          1           0        2.934645    2.713250    0.897343
     34          1           0        4.186976    3.384759    1.507227
     35          8           0        2.579246   -3.234840   -1.184039
     36          1           0        2.970870   -3.831201   -1.833884
     37          1           0        2.169156   -2.513796   -1.694932
     38          8           0        1.087154    2.861863    0.989970
     39          1           0        0.638490    3.701532    0.833903
     40          1           0        0.665656    2.220471    0.371944
     41          8           0       -4.140474   -1.652926   -0.957239
     42          1           0       -3.759502   -0.780611   -1.185396
     43          1           0       -4.505612   -1.998423   -1.780746
 ---------------------------------------------------------------------

 SCF Done:  E(RB3LYP) =  -1143.69170604     A.U. after   18 cycles

 The electronic state is 1-A.
 Alpha  occ. eigenvalues --  -19.21438 -19.21017 -19.16436 -19.15840 -19.15691
 Alpha  occ. eigenvalues --  -19.15102 -19.14274 -19.14010 -14.41110 -14.37462
 Alpha  occ. eigenvalues --  -10.35701 -10.34399 -10.26825 -10.25862 -10.24927
 Alpha  occ. eigenvalues --  -10.24175 -10.24103 -10.24041 -10.23820 -10.22211
 Alpha  occ. eigenvalues --  -10.20267  -1.13415  -1.12140  -1.04393  -1.02722
 Alpha  occ. eigenvalues --   -1.01535  -1.01047  -1.00806  -0.99393  -0.99057
 Alpha  occ. eigenvalues --   -0.98061  -0.81967  -0.80809  -0.75633  -0.73847
 Alpha  occ. eigenvalues --   -0.71548  -0.70611  -0.60474  -0.60021  -0.58040
 Alpha  occ. eigenvalues --   -0.57636  -0.57063  -0.56811  -0.54659  -0.54064
 Alpha  occ. eigenvalues --   -0.53513  -0.52149  -0.51410  -0.50663  -0.49951
 Alpha  occ. eigenvalues --   -0.49329  -0.48674  -0.47944  -0.47026  -0.46373
 Alpha  occ. eigenvalues --   -0.45084  -0.43752  -0.43074  -0.42591  -0.42150
 Alpha  occ. eigenvalues --   -0.41251  -0.40733  -0.40018  -0.38796  -0.38393
 Alpha  occ. eigenvalues --   -0.37716  -0.37198  -0.37010  -0.36858  -0.36121
 Alpha  occ. eigenvalues --   -0.36036  -0.33021  -0.32695  -0.32116  -0.31725
 Alpha  occ. eigenvalues --   -0.31605  -0.31358  -0.30658  -0.30149  -0.29850
 Alpha  occ. eigenvalues --   -0.29836  -0.26123  -0.21834
 Alpha virt. eigenvalues --   -0.12428  -0.02431  -0.00540   0.00621   0.01116
 Alpha virt. eigenvalues --    0.01468   0.01636   0.02454   0.02831   0.03333
 Alpha virt. eigenvalues --    0.03740   0.03851   0.04362   0.04492   0.05414

 Mulliken charges:
               1
     1  C   -0.199050
     2  C    0.016744
     3  C   -0.119080
     4  C    0.157887
     5  H    0.218785
     6  H    0.177030
     7  C   -0.184508
     8  H    0.163375
     9  H    0.204149
    10  C   -0.337868
    11  H    0.182484
    12  C   -0.271637
    13  H    0.165816
    14  H    0.202860
    15  H    0.212291
    16  N   -0.463569
    17  N   -0.258096
    18  C    0.333549
    19  C    0.288634
    20  O   -0.437357
    21  O   -0.470759
    22  O   -0.068260
    23  O   -0.326196
    24  C   -0.140499
    25  H    0.152646
    26  H    0.167787
    27  H    0.161272
    28  C   -0.150071
    29  H    0.172327
    30  H    0.162018
    31  H    0.194060
    32  O   -0.818494
    33  H    0.438934
    34  H    0.382216
    35  O   -0.763203
    36  H    0.395233
    37  H    0.400591
    38  O   -0.780639
    39  H    0.379072
    40  H    0.464524
    41  O   -0.799740
    42  H    0.420143
    43  H    0.374596
 Sum of Mulliken charges =   0.00000

 Dipole moment (field-independent basis, Debye):
    X=              0.4500    Y=              0.6554    Z=              4.9785  Tot=              5.0416
 Quadrupole moment (field-independent basis, Debye-Ang):
   XX=           -137.3183   YY=           -108.0762   ZZ=           -115.2956
   XY=            -11.4759   XZ=             -7.4481   YZ=              2.2236

  Exact polarizability: 243.293 -16.667 251.542  12.001 -50.155 262.297
 Approx polarizability: 298.461 -31.124 348.714  52.724-138.401 477.921

 ******    1 imaginary frequencies (negative Signs) ******

                      1                      2                      3
                      A                      A                      A
 Frequencies --   -402.6034                17.0416                18.6056
 Red. masses --     10.3758                 5.6000                 5.5124
 Frc consts  --      0.9909                 0.0010                 0.0011
 IR Inten    --    888.9492                 1.4481                 5.6995

                      4                      5                      6
                      A                      A                      A
 Frequencies --     41.9173                48.2445                54.7441
 Red. masses --      4.4264                 7.1636                 3.7081
 Frc consts  --      0.0046                 0.0098                 0.0065
 IR Inten    --      0.7355                 2.8125                10.9875

                      7                      8                      9
                      A                      A                      A
 Frequencies --     58.0772                63.2677                70.8837
 Red. masses --      3.0192                 1.9764                 3.8670
 Frc consts  --      0.0060                 0.0047                 0.0114
 IR Inten    --     94.3763               108.1265                 2.5723

                     10                     11                     12
                      A                      A                      A
 Frequencies --     75.8473                84.3670                86.2095
 Red. masses --      3.0342                 2.5599                 2.7728
 Frc consts  --      0.0103                 0.0107                 0.0121
 IR Inten    --     12.2992                33.7870                31.5847

                     13                     14                     15
                      A                      A                      A
 Frequencies --     90.9418                96.4447                99.6982
 Red. masses --      4.1764                 2.8128                 4.0965
 Frc consts  --      0.0204                 0.0154                 0.0240
 IR Inten    --      1.0531                33.8574                28.9373

                     16                     17                     18
                      A                      A                      A
 Frequencies --    108.5719               118.9399               131.3837
 Red. masses --      4.5451                 1.1088                 4.3718
 Frc consts  --      0.0316                 0.0092                 0.0445
 IR Inten    --      2.9670               135.9908                 8.0723

                     19                     20                     21
                      A                      A                      A
 Frequencies --    141.3659               152.0536               157.7861
 Red. masses --      1.9953                 3.1351                 4.2873
 Frc consts  --      0.0235                 0.0427                 0.0629
 IR Inten    --      4.9892                 3.0318                12.9972

                     22                     23                     24
                      A                      A                      A
 Frequencies --    171.7835               172.9035               181.6728
 Red. masses --      2.9813                 3.4738                 2.8291
 Frc consts  --      0.0518                 0.0612                 0.0550
 IR Inten    --      3.0645                11.6238                19.0702

                     25                     26                     27
                      A                      A                      A
 Frequencies --    186.0767               194.8542               209.0822
 Red. masses --      3.5820                 1.9022                 2.1832
 Frc consts  --      0.0731                 0.0426                 0.0562
 IR Inten    --      3.4340                 7.4879                27.8162

                     28                     29                     30
                      A                      A                      A
 Frequencies --    220.2243               250.0291               264.7053
 Red. masses --      2.9316                 1.4501                 3.7708
 Frc consts  --      0.0838                 0.0534                 0.1557
 IR Inten    --     17.3131                83.0934                26.7465

                     31                     32                     33
                      A                      A                      A
 Frequencies --    282.7105               326.9121               336.2515
 Red. masses --      5.7192                 5.2363                 4.6175
 Frc consts  --      0.2693                 0.3297                 0.3076
 IR Inten    --     17.2098                33.0373                16.5475

                     34                     35                     36
                      A                      A                      A
 Frequencies --    354.3236               356.9302               384.7186
 Red. masses --      1.1467                 1.1068                 1.0664
 Frc consts  --      0.0848                 0.0831                 0.0930
 IR Inten    --     86.4766               131.3763               169.0891

                     37                     38                     39
                      A                      A                      A
 Frequencies --    409.9679               436.2182               443.5868
 Red. masses --      4.6875                 4.4534                 2.1887
 Frc consts  --      0.4642                 0.4993                 0.2537
 IR Inten    --     85.0114                33.9452                10.8820

                     40                     41                     42
                      A                      A                      A
 Frequencies --    471.3256               499.9278               532.1435
 Red. masses --      1.1708                 2.8343                 1.0541
 Frc consts  --      0.1532                 0.4174                 0.1759
 IR Inten    --    226.7848                19.1296               115.3434

                     43                     44                     45
                      A                      A                      A
 Frequencies --    584.2844               611.1705               637.6624
 Red. masses --      1.3562                 3.4955                 5.6093
 Frc consts  --      0.2728                 0.7693                 1.3438
 IR Inten    --    104.8455                41.0269                36.7473

                     46                     47                     48
                      A                      A                      A
 Frequencies --    644.1432               672.5455               694.2865
 Red. masses --      4.7990                 1.0455                 6.3653
 Frc consts  --      1.1732                 0.2786                 1.8078
 IR Inten    --     63.1722               139.8983                31.9870

                     49                     50                     51
                      A                      A                      A
 Frequencies --    735.3451               756.3196               770.6449
 Red. masses --      2.9473                 1.8293                 5.0173
 Frc consts  --      0.9390                 0.6165                 1.7556
 IR Inten    --      9.8147                70.1654                66.9353

                     52                     53                     54
                      A                      A                      A
 Frequencies --    785.4805               790.3912               795.5819
 Red. masses --      2.3350                 2.9739                 3.3775
 Frc consts  --      0.8488                 1.0946                 1.2595
 IR Inten    --     22.7185                54.3691                 5.6899

                     55                     56                     57
                      A                      A                      A
 Frequencies --    802.4527               816.1653               825.6682
 Red. masses --      3.3201                 1.9397                 1.6606
 Frc consts  --      1.2596                 0.7613                 0.6670
 IR Inten    --      8.9929                13.7599                19.4706

                     58                     59                     60
                      A                      A                      A
 Frequencies --    852.1442               895.1451               912.2048
 Red. masses --      2.3246                 5.5031                 1.6662
 Frc consts  --      0.9946                 2.5980                 0.8169
 IR Inten    --    298.7388                 6.7967                 2.4100

                     61                     62                     63
                      A                      A                      A
 Frequencies --    930.1065               961.6562               967.9885
 Red. masses --      1.8369                 1.7719                 6.4810
 Frc consts  --      0.9363                 0.9655                 3.5779
 IR Inten    --      0.7614                 5.4616                40.8613

                     64                     65                     66
                      A                      A                      A
 Frequencies --    981.5203              1009.9021              1030.9183
 Red. masses --      1.4308                 1.7658                 1.7023
 Frc consts  --      0.8121                 1.0611                 1.0659
 IR Inten    --     37.4756                20.1383                35.5633

                     67                     68                     69
                      A                      A                      A
 Frequencies --   1046.1519              1059.0162              1065.4232
 Red. masses --      1.4380                 6.0904                 1.2723
 Frc consts  --      0.9273                 4.0244                 0.8509
 IR Inten    --     15.2001                10.8372                 1.1045

                     70                     71                     72
                      A                      A                      A
 Frequencies --   1076.6068              1080.0147              1089.1331
 Red. masses --      1.4347                 7.5982                 1.3317
 Frc consts  --      0.9798                 5.2218                 0.9307
 IR Inten    --     20.9779               173.5579                 7.2792

                     73                     74                     75
                      A                      A                      A
 Frequencies --   1119.0888              1175.0905              1184.9884
 Red. masses --      1.3585                 1.2710                 1.2617
 Frc consts  --      1.0024                 1.0340                 1.0439
 IR Inten    --     18.9745                 1.1388                10.1040

                     76                     77                     78
                      A                      A                      A
 Frequencies --   1189.5737              1206.3496              1222.2388
 Red. masses --      1.2081                 1.4911                 1.5450
 Frc consts  --      1.0072                 1.2785                 1.3599
 IR Inten    --     27.0932                90.5268                68.1460

                     79                     80                     81
                      A                      A                      A
 Frequencies --   1238.3994              1255.2934              1268.1283
 Red. masses --      2.4014                 2.1942                 1.5910
 Frc consts  --      2.1699                 2.0371                 1.5075
 IR Inten    --    713.7357               331.6451                68.6659

                     82                     83                     84
                      A                      A                      A
 Frequencies --   1277.3887              1286.2198              1305.6778
 Red. masses --      6.0096                 1.9172                 1.9244
 Frc consts  --      5.7776                 1.8687                 1.9330
 IR Inten    --    950.8715                10.6401               128.0063

                     85                     86                     87
                      A                      A                      A
 Frequencies --   1327.7402              1369.2318              1370.2802
 Red. masses --      4.4482                 7.1635                 1.9249
 Frc consts  --      4.6202                 7.9128                 2.1294
 IR Inten    --    210.8407               289.8154                12.7474

                     88                     89                     90
                      A                      A                      A
 Frequencies --   1406.1069              1473.3120              1475.2002
 Red. masses --      2.2849                 1.1848                 1.1803
 Frc consts  --      2.6617                 1.5152                 1.5134
 IR Inten    --     14.7881                40.5078                56.0717

                     91                     92                     93
                      A                      A                      A
 Frequencies --   1481.0882              1495.8322              1497.8946
 Red. masses --      1.0447                 1.0537                 1.1034
 Frc consts  --      1.3503                 1.3892                 1.4587
 IR Inten    --      9.4009                12.3798                11.0182

                     94                     95                     96
                      A                      A                      A
 Frequencies --   1499.8778              1501.7701              1624.7132
 Red. masses --      1.0640                 1.0448                 1.1099
 Frc consts  --      1.4103                 1.3883                 1.7262
 IR Inten    --     10.0485                11.9309               209.1751

                     97                     98                     99
                      A                      A                      A
 Frequencies --   1635.4205              1639.8576              1657.9515
 Red. masses --      1.0798                 1.1116                 1.0837
 Frc consts  --      1.7016                 1.7611                 1.7551
 IR Inten    --     49.2398               211.3015               162.9723

                    100                    101                    102
                      A                      A                      A
 Frequencies --   1689.8431              1743.1155              3060.0518
 Red. masses --      8.1918                 7.8838                 1.0291
 Frc consts  --     13.7823                14.1136                 5.6779
 IR Inten    --    804.2270               360.4466                51.6483

                    103                    104                    105
                      A                      A                      A
 Frequencies --   3064.0366              3090.9942              3142.1651
 Red. masses --      1.0303                 1.0636                 1.1075
 Frc consts  --      5.6992                 5.9874                 6.4427
 IR Inten    --     32.4807                27.6836                20.7295

                    106                    107                    108
                      A                      A                      A
 Frequencies --   3147.8039              3162.7886              3169.9249
 Red. masses --      1.1082                 1.1036                 1.1075
 Frc consts  --      6.4695                 6.5046                 6.5565
 IR Inten    --     13.1483                 0.6674                17.9486

                    109                    110                    111
                      A                      A                      A
 Frequencies --   3198.3108              3215.4408              3229.9347
 Red. masses --      1.1068                 1.0926                 1.0943
 Frc consts  --      6.6704                 6.6556                 6.7263
 IR Inten    --      1.0486                 2.3730                19.3487

                    112                    113                    114
                      A                      A                      A
 Frequencies --   3244.3764              3253.9909              3257.4113
 Red. masses --      1.0911                 1.0968                 1.0922
 Frc consts  --      6.7667                 6.8427                 6.8281
 IR Inten    --      7.8719                 3.2185                 3.3595

                    115                    116                    117
                      A                      A                      A
 Frequencies --   3264.5873              3447.3018              3573.4294
 Red. masses --      1.0968                 1.0631                 1.0590
 Frc consts  --      6.8872                 7.4433                 7.9674
 IR Inten    --      5.0079              1277.4176               515.1054

                    118                    119                    120
                      A                      A                      A
 Frequencies --   3587.2158              3676.7178              3880.1629
 Red. masses --      1.0597                 1.0556                 1.0691
 Frc consts  --      8.0345                 8.4072                 9.4838
 IR Inten    --    521.1515               260.3635                58.4657

                    121                    122                    123
                      A                      A                      A
 Frequencies --   3881.1662              3882.4813              3886.0348
 Red. masses --      1.0700                 1.0679                 1.0734
 Frc consts  --      9.4966                 9.4843                 9.5502
 IR Inten    --    118.7891               112.0622               127.0616

 - Thermochemistry -
 -------------------
 Temperature   298.150 Kelvin.  Pressure   1.00000 Atm.
 Atom     1 has atomic number  6 and mass  12.00000

 Molecular mass:   310.13762 amu.
 Principal axes and moments of inertia in atomic units:
                           1         2         3
     Eigenvalues --  5667.035397334.789629460.02407
           X            0.99996  -0.00793  -0.00497
           Y            0.00805   0.99964   0.02557
           Z            0.00477  -0.02561   0.99966
 This molecule is an asymmetric top.
 Rotational symmetry number  1.
 Warning -- assumption of classical behavior for rotation
           may cause significant error
 Rotational temperatures (Kelvin)      0.01528     0.01181     0.00916
 Rotational constants (GHZ):           0.31846     0.24605     0.19078
    1 imaginary frequencies ignored.
 Zero-point vibrational energy     892514.7 (Joules/Mol)
                                  213.31614 (Kcal/Mol)
 Warning -- explicit consideration of  43 degrees of freedom as
           vibrations may cause significant error
 Vibrational temperatures:     24.52    26.77    60.31    69.41    78.76
          (Kelvin)             83.56    91.03   101.99   109.13   121.39
                              124.04   130.84   138.76   143.44   156.21
                              171.13   189.03   203.39   218.77   227.02
                              247.16   248.77   261.39   267.72   280.35
                              300.82   316.85   359.74   380.85   406.76
                              470.35   483.79   509.79   513.54   553.52
                              589.85   627.62   638.22   678.13   719.28
                              765.63   840.65   879.34   917.45   926.78
                              967.64   998.92  1058.00  1088.17  1108.78
                             1130.13  1137.20  1144.66  1154.55  1174.28
                             1187.95  1226.04  1287.91  1312.46  1338.21
                             1383.61  1392.72  1412.19  1453.02  1483.26
                             1505.18  1523.69  1532.90  1549.00  1553.90
                             1567.02  1610.12  1690.69  1704.93  1711.53
                             1735.67  1758.53  1781.78  1806.08  1824.55
                             1837.88  1850.58  1878.58  1910.32  1970.02
                             1971.53  2023.07  2119.76  2122.48  2130.95
                             2152.17  2155.13  2157.99  2160.71  2337.60
                             2353.00  2359.39  2385.42  2431.30  2507.95
                             4402.73  4408.46  4447.25  4520.87  4528.98
                             4550.54  4560.81  4601.65  4626.30  4647.15
                             4667.93  4681.76  4686.68  4697.01  4959.89
                             5141.36  5161.20  5289.97  5582.68  5584.13
                             5586.02  5591.13

 Zero-point correction=                           0.339941 (Hartree/Particle)
 Thermal correction to Energy=                    0.369247
 Thermal correction to Enthalpy=                  0.370191
 Thermal correction to Gibbs Free Energy=         0.277245
 Sum of electronic and zero-point Energies=          -1143.351765
 Sum of electronic and thermal Energies=             -1143.322459
 Sum of electronic and thermal Enthalpies=           -1143.321515
 Sum of electronic and thermal Free Energies=        -1143.414461

                     E (Thermal)             CV                S
                      KCal/Mol        Cal/Mol-Kelvin    Cal/Mol-Kelvin
 Total                  231.706            100.124            195.621
 Electronic               0.000              0.000              0.000
 Translational            0.889              2.981             43.092
 Rotational               0.889              2.981             34.330
 Vibrational            229.928             94.163            118.199
 Vibration     1          0.593              1.986              6.952
 Vibration     2          0.593              1.986              6.778
 Vibration     3          0.595              1.980              5.166
 Vibration     4          0.595              1.978              4.888
 Vibration     5          0.596              1.976              4.638
 Vibration     6          0.596              1.974              4.521
 Vibration     7          0.597              1.972              4.353
 Vibration     8          0.598              1.968              4.129
 Vibration     9          0.599              1.965              3.996
 Vibration    10          0.601              1.960              3.787
 Vibration    11          0.601              1.959              3.744
 Vibration    12          0.602              1.956              3.640
 Vibration    13          0.603              1.952              3.525
 Vibration    14          0.604              1.949              3.460
 Vibration    15          0.606              1.942              3.294
 Vibration    16          0.609              1.934              3.118
 Vibration    17          0.612              1.922              2.926
 Vibration    18          0.615              1.912              2.785
 Vibration    19          0.619              1.900              2.646
 Vibration    20          0.621              1.894              2.576
 Vibration    21          0.626              1.877              2.416
 Vibration    22          0.626              1.876              2.404
 Vibration    23          0.630              1.865              2.311
 Vibration    24          0.632              1.859              2.267
 Vibration    25          0.636              1.847              2.181
 Vibration    26          0.642              1.827              2.052
 Vibration    27          0.647              1.810              1.957
 Vibration    28          0.663              1.763              1.730
 Vibration    29          0.671              1.738              1.631
 Vibration    30          0.682              1.706              1.517
 Vibration    31          0.711              1.622              1.275
 Vibration    32          0.717              1.603              1.230
 Vibration    33          0.730              1.566              1.147
 Vibration    34          0.732              1.561              1.135
 Vibration    35          0.754              1.503              1.021
 Vibration    36          0.774              1.449              0.927
 Vibration    37          0.797              1.391              0.839
 Vibration    38          0.803              1.375              0.815
 Vibration    39          0.828              1.314              0.734
 Vibration    40          0.855              1.250              0.658
 Vibration    41          0.887              1.179              0.582
 Vibration    42          0.941              1.065              0.477
 Vibration    43          0.970              1.008              0.431

 Normal termination of Gaussian 09 at Fri Feb  5 09:08:14 2021.
