 Gaussian 09, Revision D.01,
 Gaussian 09:  ES64L-G09RevD.01 24-Apr-2013

 ----------------------------------------------------------------------
 # opt=(calcfc,ts,noeigentest) b3lyp/6-31+g(d,p) scrf=(cpcm,solvent=tol
 uene) empiricaldispersion=gd3 int=superfine
 ----------------------------------------------------------------------

 -------------
 Opt superfine
 -------------
 Symbolic Z-matrix:
 Charge =  0 Multiplicity = 1

 SCF Done:  E(RB3LYP) =  -1143.69046710     A.U. after   17 cycles

  Exact polarizability:   0.000   0.000   0.000   0.000   0.000   0.000
 Approx polarizability: 298.077 -36.014 350.048  57.312-141.582 483.461

 SCF Done:  E(RB3LYP) =  -1143.61743154     A.U. after   16 cycles
 SCF Done:  E(RB3LYP) =  -1143.69123799     A.U. after   15 cycles
 SCF Done:  E(RB3LYP) =  -1143.69043936     A.U. after   15 cycles
 SCF Done:  E(RB3LYP) =  -1143.69073247     A.U. after   15 cycles
 SCF Done:  E(RB3LYP) =  -1143.69397347     A.U. after   15 cycles
 SCF Done:  E(RB3LYP) =  -1143.69390037     A.U. after   14 cycles
 SCF Done:  E(RB3LYP) =  -1143.68972807     A.U. after   15 cycles
 SCF Done:  E(RB3LYP) =  -1143.68995928     A.U. after   15 cycles
 SCF Done:  E(RB3LYP) =  -1143.69023138     A.U. after   15 cycles
 SCF Done:  E(RB3LYP) =  -1143.69165974     A.U. after   13 cycles
 SCF Done:  E(RB3LYP) =  -1143.69167132     A.U. after   12 cycles
 SCF Done:  E(RB3LYP) =  -1143.69167414     A.U. after   11 cycles
 SCF Done:  E(RB3LYP) =  -1143.69167626     A.U. after   11 cycles
 SCF Done:  E(RB3LYP) =  -1143.69167636     A.U. after   11 cycles
 SCF Done:  E(RB3LYP) =  -1143.69167655     A.U. after   11 cycles
 SCF Done:  E(RB3LYP) =  -1143.69167664     A.U. after   10 cycles
 SCF Done:  E(RB3LYP) =  -1143.69167666     A.U. after   10 cycles
 SCF Done:  E(RB3LYP) =  -1143.69167665     A.U. after    9 cycles
 SCF Done:  E(RB3LYP) =  -1143.69167665     A.U. after    8 cycles
 Optimization completed.
    -- Stationary point found.

                         Standard orientation:
 ---------------------------------------------------------------------
 Center     Atomic      Atomic             Coordinates (Angstroms)
 Number     Number       Type             X           Y           Z
 ---------------------------------------------------------------------
      1          6           0        0.208509   -0.340613    1.259354
      2          6           0        0.702431   -1.795366    1.062705
      3          6           0       -1.606622   -1.937493    1.028159
      4          6           0       -1.285124   -0.523961    1.450915
      5          1           0        0.789198    0.433492    1.740997
      6          1           0       -1.994608    0.283353    1.561734
      7          6           0       -0.407143   -2.499176    0.273971
      8          1           0       -0.318852   -3.585274    0.363312
      9          1           0       -0.415072   -2.212812   -0.777949
     10          6           0        0.273984   -1.735098    2.461299
     11          1           0        0.916155   -1.554435    3.314100
     12          6           0       -1.209869   -1.724163    2.464047
     13          1           0       -1.841469   -1.801387    3.338111
     14          1           0        1.749748   -1.940059    0.820772
     15          1           0       -2.627994   -2.173670    0.755309
     16          7           0       -0.930234    0.334063   -1.179481
     17          7           0        0.190206    0.663723   -0.587422
     18          6           0       -1.986492    1.197905   -0.911472
     19          6           0        1.333244    0.014242   -1.145729
     20          8           0        1.345481   -0.809749   -2.046315
     21          8           0       -3.127034    0.959118   -1.310171
     22          8           0        2.411749    0.506852   -0.536576
     23          8           0       -1.685321    2.329442   -0.232798
     24          6           0       -2.788328    3.223117    0.021800
     25          1           0       -2.361865    4.055213    0.581827
     26          1           0       -3.220657    3.573010   -0.918457
     27          1           0       -3.559893    2.719565    0.609658
     28          6           0        3.706900    0.040807   -0.984156
     29          1           0        3.824099   -1.019699   -0.749732
     30          1           0        3.803493    0.193957   -2.061605
     31          1           0        4.416700    0.655821   -0.435021
     32          8           0        3.913149    2.661646    0.930223
     33          1           0        2.934645    2.713250    0.897343
     34          1           0        4.186976    3.384759    1.507227
     35          8           0        2.579246   -3.234840   -1.184039
     36          1           0        2.970870   -3.831201   -1.833884
     37          1           0        2.169156   -2.513796   -1.694932
     38          8           0        1.087154    2.861863    0.989970
     39          1           0        0.638490    3.701532    0.833903
     40          1           0        0.665656    2.220471    0.371944
     41          8           0       -4.140474   -1.652926   -0.957239
     42          1           0       -3.759502   -0.780611   -1.185396
     43          1           0       -4.505612   -1.998423   -1.780746
 ---------------------------------------------------------------------

 The electronic state is 1-A.
 Alpha  occ. eigenvalues --  -19.21438 -19.21016 -19.16435 -19.15839 -19.15691
 Alpha  occ. eigenvalues --  -19.15102 -19.14275 -19.14009 -14.41111 -14.37463
 Alpha  occ. eigenvalues --  -10.35701 -10.34399 -10.26824 -10.25862 -10.24926
 Alpha  occ. eigenvalues --  -10.24176 -10.24103 -10.24041 -10.23820 -10.22211
 Alpha  occ. eigenvalues --  -10.20268  -1.13414  -1.12140  -1.04393  -1.02722
 Alpha  occ. eigenvalues --   -1.01535  -1.01047  -1.00806  -0.99393  -0.99057
 Alpha  occ. eigenvalues --   -0.98060  -0.81967  -0.80809  -0.75633  -0.73847
 Alpha  occ. eigenvalues --   -0.71548  -0.70611  -0.60474  -0.60022  -0.58040
 Alpha  occ. eigenvalues --   -0.57636  -0.57063  -0.56811  -0.54659  -0.54064
 Alpha  occ. eigenvalues --   -0.53513  -0.52149  -0.51409  -0.50663  -0.49951
 Alpha  occ. eigenvalues --   -0.49329  -0.48674  -0.47944  -0.47026  -0.46373
 Alpha  occ. eigenvalues --   -0.45084  -0.43752  -0.43074  -0.42591  -0.42151
 Alpha  occ. eigenvalues --   -0.41251  -0.40733  -0.40018  -0.38796  -0.38393
 Alpha  occ. eigenvalues --   -0.37716  -0.37197  -0.37010  -0.36858  -0.36121
 Alpha  occ. eigenvalues --   -0.36036  -0.33022  -0.32695  -0.32116  -0.31724
 Alpha  occ. eigenvalues --   -0.31605  -0.31358  -0.30657  -0.30150  -0.29849
 Alpha  occ. eigenvalues --   -0.29836  -0.26123  -0.21833
 Alpha virt. eigenvalues --   -0.12428  -0.02431  -0.00542   0.00621   0.01115
 Alpha virt. eigenvalues --    0.01467   0.01636   0.02455   0.02829   0.03333
 Alpha virt. eigenvalues --    0.03739   0.03849   0.04361   0.04492   0.05413

 Mulliken charges:
               1
     1  C   -0.199907
     2  C    0.016980
     3  C   -0.119295
     4  C    0.158265
     5  H    0.218783
     6  H    0.176997
     7  C   -0.184551
     8  H    0.163375
     9  H    0.204121
    10  C   -0.337752
    11  H    0.182503
    12  C   -0.271856
    13  H    0.165831
    14  H    0.202839
    15  H    0.212273
    16  N   -0.462242
    17  N   -0.259858
    18  C    0.333973
    19  C    0.288940
    20  O   -0.437414
    21  O   -0.470755
    22  O   -0.067696
    23  O   -0.326216
    24  C   -0.140460
    25  H    0.152614
    26  H    0.167793
    27  H    0.161255
    28  C   -0.150180
    29  H    0.172296
    30  H    0.162030
    31  H    0.194033
    32  O   -0.818506
    33  H    0.438901
    34  H    0.382214
    35  O   -0.763214
    36  H    0.395233
    37  H    0.400586
    38  O   -0.780554
    39  H    0.379058
    40  H    0.464555
    41  O   -0.799750
    42  H    0.420155
    43  H    0.374601
 Sum of Mulliken charges =   0.00000

 Dipole moment (field-independent basis, Debye):
    X=              0.4501    Y=              0.6556    Z=              4.9781  Tot=              5.0412
 Quadrupole moment (field-independent basis, Debye-Ang):
   XX=           -137.3184   YY=           -108.0760   ZZ=           -115.2975
   XY=            -11.4756   XZ=             -7.4481   YZ=              2.2236

 Normal termination of Gaussian 09 at Thu Feb  4 06:09:56 2021.
