 Gaussian 09, Revision D.01,
 Gaussian 09:  ES64L-G09RevD.01 24-Apr-2013

 ----------------------------------------------------------------------
 # opt freq b3lyp/6-31+g(d,p) scrf=(cpcm,solvent=toluene) geom=connecti
 vity empiricaldispersion=gd3
 ----------------------------------------------------------------------

 -------------------
 Title Card Required
 -------------------
 Symbolic Z-matrix:
 Charge =  0 Multiplicity = 1

 SCF Done:  E(RB3LYP) =  -615.444844134     A.U. after   14 cycles
 SCF Done:  E(RB3LYP) =  -615.445647142     A.U. after   11 cycles
 SCF Done:  E(RB3LYP) =  -615.445720577     A.U. after   11 cycles
 SCF Done:  E(RB3LYP) =  -615.445785086     A.U. after   11 cycles
 SCF Done:  E(RB3LYP) =  -615.445801566     A.U. after   11 cycles
 SCF Done:  E(RB3LYP) =  -615.445813521     A.U. after    9 cycles
 SCF Done:  E(RB3LYP) =  -615.445816380     A.U. after    9 cycles
 SCF Done:  E(RB3LYP) =  -615.445817547     A.U. after    9 cycles
 SCF Done:  E(RB3LYP) =  -615.445819757     A.U. after   10 cycles
 SCF Done:  E(RB3LYP) =  -615.445822564     A.U. after   10 cycles
 SCF Done:  E(RB3LYP) =  -615.445828247     A.U. after    8 cycles
 SCF Done:  E(RB3LYP) =  -615.445828400     A.U. after    8 cycles
 SCF Done:  E(RB3LYP) =  -615.445828495     A.U. after    8 cycles
 SCF Done:  E(RB3LYP) =  -615.445828551     A.U. after    8 cycles
 SCF Done:  E(RB3LYP) =  -615.445828609     A.U. after    8 cycles
 SCF Done:  E(RB3LYP) =  -615.445828687     A.U. after    8 cycles
 SCF Done:  E(RB3LYP) =  -615.445828738     A.U. after    8 cycles
 SCF Done:  E(RB3LYP) =  -615.445828769     A.U. after    8 cycles
 SCF Done:  E(RB3LYP) =  -615.445828784     A.U. after    7 cycles
 Optimization completed.
    -- Stationary point found.

 1\1\GINC-D8S2B3\FOpt\RB3LYP\6-31+G(d,p)\C8H16O4\CHMKSH\28-Aug-2020\0\\
 # opt freq b3lyp/6-31+g(d,p) scrf=(cpcm,solvent=toluene) geom=connecti
 vity empiricaldispersion=gd3\\Title Card Required\\0,1\C,-3.3232837927
 ,0.498986358,-0.2192577005\H,-3.5404001198,1.4574848675,-0.6924883464\
 C,-1.9047548065,0.1159848349,-0.192065242\H,-1.1878529374,0.9351260696
 ,-0.1892130791\C,-4.3435357507,-0.1973922811,0.3116508058\H,-4.1279697
 057,-1.1255087935,0.8428388129\C,-5.7867072248,0.2105493681,0.25079584
 06\H,-6.2100487358,0.3190741877,1.2577941475\H,-5.9171238354,1.1585499

 Normal termination of Gaussian 09 at Fri Aug 28 16:43:13 2020.

 ----------------------------------------------------------------------
 #N Geom=AllCheck Guess=TCheck SCRF=Check GenChk RB3LYP/6-31+G(d,p) Fre
 q
 ----------------------------------------------------------------------

 Structure from the checkpoint file:  "b3lyp_PM6_2H2O_diene_pm6_cpcmtoluene_2.chk"
 -------------------
 Title Card Required
 -------------------
 Charge =  0 Multiplicity = 1

                         Standard orientation:
 ---------------------------------------------------------------------
 Center     Atomic      Atomic             Coordinates (Angstroms)
 Number     Number       Type             X           Y           Z
 ---------------------------------------------------------------------
      1          6           0       -3.320690    0.506822   -0.213767
      2          1           0       -3.534956    1.474266   -0.669779
      3          6           0       -1.902253    0.123627   -0.184563
      4          1           0       -1.185642    0.942691   -0.161079
      5          6           0       -4.344229   -0.199897    0.296758
      6          1           0       -4.131908   -1.138089    0.811293
      7          6           0       -5.787092    0.208880    0.234218
      8          1           0       -6.217151    0.297802    1.240292
      9          1           0       -5.914269    1.166978   -0.279895
     10          1           0       -6.385380   -0.544423   -0.295315
     11          6           0       -1.442956   -1.138375   -0.209584
     12          1           0       -2.131158   -1.978593   -0.289705
     13          6           0       -0.001839   -1.545665   -0.148660
     14          1           0        0.278012   -2.114682   -1.044615
     15          1           0        0.182656   -2.181063    0.727373
     16          6           0        2.150594   -0.396249    0.007401
     17          6           0        2.858919   -1.723896    0.015303
     18          1           0        2.630297   -2.281971   -0.898192
     19          1           0        3.933389   -1.560994    0.083089
     20          1           0        2.525117   -2.328126    0.864602
     21          8           0        0.817270   -0.358705   -0.061437
     22          8           0        2.730025    0.685515    0.061909
     23          8           0        5.544704    0.385169    0.205254
     24          1           0        4.608395    0.657832    0.161190
     25          1           0        6.059977    1.199638    0.249586
     26          8           0        0.613196    2.747963   -0.102499
     27          1           0        1.049521    3.608080   -0.069085
     28          1           0        1.328814    2.089649   -0.038219
 ---------------------------------------------------------------------

 SCF Done:  E(RB3LYP) =  -615.445828784     A.U. after    1 cycles

 The electronic state is 1-A.
 Alpha  occ. eigenvalues --  -19.22334 -19.17453 -19.14894 -19.14561 -10.35460
 Alpha  occ. eigenvalues --  -10.27321 -10.21621 -10.20296 -10.19766 -10.19600
 Alpha  occ. eigenvalues --  -10.19228 -10.18687  -1.13457  -1.04835  -1.00080
 Alpha  occ. eigenvalues --   -0.99764  -0.82474  -0.79083  -0.77059  -0.73427
 Alpha  occ. eigenvalues --   -0.67131  -0.61957  -0.58273  -0.54043  -0.52948
 Alpha  occ. eigenvalues --   -0.52624  -0.51745  -0.51076  -0.49991  -0.47218
 Alpha  occ. eigenvalues --   -0.45435  -0.45047  -0.42545  -0.41705  -0.41341
 Alpha  occ. eigenvalues --   -0.40819  -0.39808  -0.38325  -0.37875  -0.36792
 Alpha  occ. eigenvalues --   -0.35634  -0.34972  -0.33081  -0.31217  -0.30670
 Alpha  occ. eigenvalues --   -0.30420  -0.30266  -0.22945
 Alpha virt. eigenvalues --   -0.03417  -0.02628  -0.00252   0.01180   0.01562
 Alpha virt. eigenvalues --    0.02976   0.02990   0.03533   0.04273   0.04546
 Alpha virt. eigenvalues --    0.05184   0.05447   0.05943   0.07258   0.07624

 Mulliken charges:
               1
     1  C   -0.571235
     2  H    0.128936
     3  C    0.319473
     4  H    0.182965
     5  C    0.214093
     6  H    0.126138
     7  C   -0.763513
     8  H    0.159984
     9  H    0.155870
    10  H    0.159974
    11  C   -0.122383
    12  H    0.135596
    13  C   -0.276001
    14  H    0.159396
    15  H    0.158818
    16  C    0.674462
    17  C   -0.468596
    18  H    0.188606
    19  H    0.209640
    20  H    0.188447
    21  O   -0.362334
    22  O   -0.595348
    23  O   -0.808118
    24  H    0.426748
    25  H    0.375417
    26  O   -0.806690
    27  H    0.385146
    28  H    0.424509
 Sum of Mulliken charges =   0.00000

 Dipole moment (field-independent basis, Debye):
    X=             -1.4618    Y=             -3.4014    Z=              0.0203  Tot=              3.7022
 Quadrupole moment (field-independent basis, Debye-Ang):
   XX=            -79.9928   YY=            -61.7066   ZZ=            -77.8890
   XY=              7.1343   XZ=             -1.1222   YZ=             -0.0098

  Exact polarizability: 191.927  -5.246 139.099  -6.247  -2.191  98.621
 Approx polarizability: 201.558  -0.417 177.453  -9.871  -3.976 121.310

                      1                      2                      3
                      A                      A                      A
 Frequencies --     17.6384                32.5498                41.1471
 Red. masses --      7.1999                 1.3906                 2.2181
 Frc consts  --      0.0013                 0.0009                 0.0022
 IR Inten    --      8.2932                45.4840                73.4345

                      4                      5                      6
                      A                      A                      A
 Frequencies --     46.9247                48.8580                55.2135
 Red. masses --      4.3761                 4.3170                 2.3730
 Frc consts  --      0.0057                 0.0061                 0.0043
 IR Inten    --      5.5022                 1.4663                 4.2794

                      7                      8                      9
                      A                      A                      A
 Frequencies --     62.4032                94.7952               115.2375
 Red. masses --      5.6106                 4.6964                 1.1321
 Frc consts  --      0.0129                 0.0249                 0.0089
 IR Inten    --     10.3601                10.8270               230.8027

                     10                     11                     12
                      A                      A                      A
 Frequencies --    132.7307               134.1804               141.3280
 Red. masses --      4.6972                 2.1695                 5.1178
 Frc consts  --      0.0488                 0.0230                 0.0602
 IR Inten    --      0.2036                 5.3425                 2.6102

                     13                     14                     15
                      A                      A                      A
 Frequencies --    149.7340               154.0745               192.5333
 Red. masses --      1.7641                 1.5395                 2.8754
 Frc consts  --      0.0233                 0.0215                 0.0628
 IR Inten    --      2.9979                 9.9776                11.9860

                     16                     17                     18
                      A                      A                      A
 Frequencies --    199.8511               224.1920               251.3769
 Red. masses --      1.7026                 1.7779                 3.5298
 Frc consts  --      0.0401                 0.0526                 0.1314
 IR Inten    --      8.1581                 1.2817                18.7606

                     19                     20                     21
                      A                      A                      A
 Frequencies --    340.7914               348.0098               369.4601
 Red. masses --      2.3841                 1.1063                 2.8151
 Frc consts  --      0.1631                 0.0789                 0.2264
 IR Inten    --     14.8768               130.9624                17.1119

                     22                     23                     24
                      A                      A                      A
 Frequencies --    409.6142               469.5373               528.8914
 Red. masses --      1.0949                 4.0511                 1.1186
 Frc consts  --      0.1082                 0.5262                 0.1844
 IR Inten    --    215.7428                 5.2907                54.1649

                     25                     26                     27
                      A                      A                      A
 Frequencies --    537.7316               561.1247               590.4087
 Red. masses --      4.2656                 1.0781                 2.0088
 Frc consts  --      0.7267                 0.2000                 0.4126
 IR Inten    --     21.7020               122.4996                86.3589

                     28                     29                     30
                      A                      A                      A
 Frequencies --    608.4407               707.1997               774.5204
 Red. masses --      5.2135                 2.9231                 1.6987
 Frc consts  --      1.1371                 0.8613                 0.6004
 IR Inten    --     15.4820                 8.2318                 3.2193

                     31                     32                     33
                      A                      A                      A
 Frequencies --    835.2019               853.1828               920.2718
 Red. masses --      2.3431                 2.5859                 1.7900
 Frc consts  --      0.9630                 1.1090                 0.8932
 IR Inten    --      1.8293                 3.0251                15.0516

                     34                     35                     36
                      A                      A                      A
 Frequencies --    991.1357               997.1955              1017.6049
 Red. masses --      1.3371                 1.8292                 1.2141
 Frc consts  --      0.7739                 1.0717                 0.7407
 IR Inten    --     30.1957                25.2872                61.5080

                     37                     38                     39
                      A                      A                      A
 Frequencies --   1032.3027              1040.6013              1062.7661
 Red. masses --      1.5852                 1.5979                 1.5465
 Frc consts  --      0.9953                 1.0194                 1.0291
 IR Inten    --      5.1091                41.2935                 1.2915

                     40                     41                     42
                      A                      A                      A
 Frequencies --   1064.3578              1089.2972              1119.1017
 Red. masses --      1.8067                 3.0196                 2.8905
 Frc consts  --      1.2059                 2.1110                 2.1329
 IR Inten    --     13.4440                52.4475                45.5774

                     43                     44                     45
                      A                      A                      A
 Frequencies --   1127.8497              1267.2967              1309.5016
 Red. masses --      2.5000                 1.0618                 1.8377
 Frc consts  --      1.8737                 1.0047                 1.8566
 IR Inten    --     10.0364                 1.8826               278.9558

                     46                     47                     48
                      A                      A                      A
 Frequencies --   1319.6817              1324.4153              1348.7320
 Red. masses --      2.0156                 1.3359                 1.3299
 Frc consts  --      2.0682                 1.3806                 1.4253
 IR Inten    --    365.2726                46.8812                21.3607

                     49                     50                     51
                      A                      A                      A
 Frequencies --   1367.7109              1411.7673              1414.9371
 Red. masses --      1.3193                 1.2973                 1.2879
 Frc consts  --      1.4541                 1.5234                 1.5191
 IR Inten    --     12.5730               111.0904                 8.1247

                     52                     53                     54
                      A                      A                      A
 Frequencies --   1421.7646              1472.9889              1474.4367
 Red. masses --      1.4169                 1.0806                 1.0448
 Frc consts  --      1.6875                 1.3814                 1.3383
 IR Inten    --      0.8878                31.2917                10.6914

                     55                     56                     57
                      A                      A                      A
 Frequencies --   1483.5733              1487.8691              1493.4979
 Red. masses --      1.0449                 1.0594                 1.0874
 Frc consts  --      1.3550                 1.3818                 1.4291
 IR Inten    --     17.6944                17.7537                 1.1597

                     58                     59                     60
                      A                      A                      A
 Frequencies --   1629.3595              1636.0354              1703.4378
 Red. masses --      1.1009                 1.0806                 5.9692
 Frc consts  --      1.7221                 1.7041                10.2051
 IR Inten    --     86.0865               168.1063                11.9130

                     61                     62                     63
                      A                      A                      A
 Frequencies --   1721.4970              1737.2153              3017.2354
 Red. masses --      4.8232                 8.2797                 1.0373
 Frc consts  --      8.4216                14.7221                 5.5639
 IR Inten    --      5.5393               568.3956                52.6900

                     64                     65                     66
                      A                      A                      A
 Frequencies --   3021.6729              3059.6823              3062.2943
 Red. masses --      1.0558                 1.0420                 1.1038
 Frc consts  --      5.6796                 5.7475                 6.0985
 IR Inten    --     40.5486                 4.8181                17.9425

                     67                     68                     69
                      A                      A                      A
 Frequencies --   3065.2085              3105.8992              3125.2303
 Red. masses --      1.0997                 1.0999                 1.1004
 Frc consts  --      6.0877                 6.2516                 6.3321
 IR Inten    --     25.8990                17.7207                 2.7387

                     70                     71                     72
                      A                      A                      A
 Frequencies --   3134.6612              3143.2961              3163.0137
 Red. masses --      1.0906                 1.0865                 1.0907
 Frc consts  --      6.3141                 6.3249                 6.4292
 IR Inten    --      5.0922                59.3814                16.0292

                     73                     74                     75
                      A                      A                      A
 Frequencies --   3176.8324              3185.8505              3631.3754
 Red. masses --      1.0881                 1.1027                 1.0577
 Frc consts  --      6.4702                 6.5943                 8.2175
 IR Inten    --      0.2101                 0.4031               718.0463

                     76                     77                     78
                      A                      A                      A
 Frequencies --   3675.5450              3884.3825              3885.9490
 Red. masses --      1.0555                 1.0722                 1.0724
 Frc consts  --      8.4015                 9.5320                 9.5412
 IR Inten    --    332.1617                83.0608               167.0058

 - Thermochemistry -
 -------------------
 Temperature   298.150 Kelvin.  Pressure   1.00000 Atm.
 Atom     1 has atomic number  6 and mass  12.00000

 Molecular mass:   176.10486 amu.
 Principal axes and moments of inertia in atomic units:
                           1         2         3
     Eigenvalues --  1004.742066650.196107578.72244
           X            0.99999  -0.00295  -0.00120
           Y            0.00295   0.99999  -0.00260
           Z            0.00120   0.00259   1.00000
 This molecule is an asymmetric top.
 Rotational symmetry number  1.
 Warning -- assumption of classical behavior for rotation
           may cause significant error
 Rotational temperatures (Kelvin)      0.08621     0.01302     0.01143
 Rotational constants (GHZ):           1.79622     0.27138     0.23813
 Zero-point vibrational energy     609229.5 (Joules/Mol)
                                  145.60934 (Kcal/Mol)
 Warning -- explicit consideration of  28 degrees of freedom as
           vibrations may cause significant error
 Vibrational temperatures:     25.38    46.83    59.20    67.51    70.30
          (Kelvin)             79.44    89.78   136.39   165.80   190.97
                              193.06   203.34   215.43   221.68   277.01
                              287.54   322.56   361.67   490.32   500.71
                              531.57   589.34   675.56   760.96   773.67
                              807.33   849.47   875.41  1017.50  1114.36
                             1201.67  1227.54  1324.06  1426.02  1434.74
                             1464.10  1485.25  1497.19  1529.08  1531.37
                             1567.25  1610.14  1622.72  1823.36  1884.08
                             1898.73  1905.54  1940.52  1967.83  2031.22
                             2035.78  2045.60  2119.30  2121.38  2134.53
                             2140.71  2148.81  2344.28  2353.89  2450.86
                             2476.85  2499.46  4341.12  4347.51  4402.19
                             4405.95  4410.15  4468.69  4496.50  4510.07
                             4522.50  4550.87  4570.75  4583.72  5224.73
                             5288.28  5588.75  5591.01

 Zero-point correction=                           0.232043 (Hartree/Particle)
 Thermal correction to Energy=                    0.251024
 Thermal correction to Enthalpy=                  0.251968
 Thermal correction to Gibbs Free Energy=         0.181349
 Sum of electronic and zero-point Energies=           -615.213786
 Sum of electronic and thermal Energies=              -615.194805
 Sum of electronic and thermal Enthalpies=            -615.193861
 Sum of electronic and thermal Free Energies=         -615.264479

                     E (Thermal)             CV                S
                      KCal/Mol        Cal/Mol-Kelvin    Cal/Mol-Kelvin
 Total                  157.520             61.629            148.629
 Electronic               0.000              0.000              0.000
 Translational            0.889              2.981             41.405
 Rotational               0.889              2.981             32.293
 Vibrational            155.742             55.668             74.931
 Vibration     1          0.593              1.986              6.884
 Vibration     2          0.594              1.983              5.668
 Vibration     3          0.594              1.981              5.203
 Vibration     4          0.595              1.979              4.943
 Vibration     5          0.595              1.978              4.863
 Vibration     6          0.596              1.975              4.621
 Vibration     7          0.597              1.972              4.380
 Vibration     8          0.603              1.953              3.559
 Vibration     9          0.608              1.937              3.179
 Vibration    10          0.613              1.921              2.906
 Vibration    11          0.613              1.919              2.885
 Vibration    12          0.615              1.912              2.786
 Vibration    13          0.618              1.903              2.676
 Vibration    14          0.620              1.898              2.621
 Vibration    15          0.635              1.850              2.203
 Vibration    16          0.638              1.840              2.134
 Vibration    17          0.649              1.804              1.925
 Vibration    18          0.663              1.760              1.721
 Vibration    19          0.720              1.594              1.208
 Vibration    20          0.726              1.579              1.175
 Vibration    21          0.742              1.535              1.082
 Vibration    22          0.774              1.449              0.928
 Vibration    23          0.827              1.318              0.739
 Vibration    24          0.884              1.186              0.590
 Vibration    25          0.893              1.167              0.570
 Vibration    26          0.917              1.115              0.522
 Vibration    27          0.948              1.052              0.466
 Vibration    28          0.967              1.014              0.435

 1\1\GINC-D8S2B3\Freq\RB3LYP\6-31+G(d,p)\C8H16O4\CHMKSH\28-Aug-2020\0\\
 #N Geom=AllCheck Guess=TCheck SCRF=Check GenChk RB3LYP/6-31+G(d,p) Fre
 q\\Title Card Required\\0,1\C,-3.3232837927,0.498986358,-0.2192577005\
 H,-3.5404001198,1.4574848675,-0.6924883464\C,-1.9047548065,0.115984834
 9,-0.192065242\H,-1.1878529374,0.9351260696,-0.1892130791\C,-4.3435357
 507,-0.1973922811,0.3116508058\H,-4.1279697057,-1.1255087935,0.8428388
 129\C,-5.7867072248,0.2105493681,0.2507958406\H,-6.2100487358,0.319074
 1877,1.2577941475\H,-5.9171238354,1.1585499302,-0.2809217807\H,-6.3886

 Normal termination of Gaussian 09 at Fri Aug 28 16:52:27 2020.
