 Gaussian 09, Revision D.01,
 Gaussian 09:  ES64L-G09RevD.01 24-Apr-2013

 ----------------------------------------------------------------------
 # opt freq b3lyp/6-31+g(d,p) scrf=(cpcm,solvent=toluene) geom=connecti
 vity empiricaldispersion=gd3
 ----------------------------------------------------------------------

 -------------------
 Title Card Required
 -------------------
 Symbolic Z-matrix:
 Charge =  0 Multiplicity = 1

 SCF Done:  E(RB3LYP) =  -551.672746597     A.U. after   13 cycles
 SCF Done:  E(RB3LYP) =  -551.677670352     A.U. after   12 cycles
 SCF Done:  E(RB3LYP) =  -551.678572104     A.U. after   12 cycles
 SCF Done:  E(RB3LYP) =  -551.678885065     A.U. after   11 cycles
 SCF Done:  E(RB3LYP) =  -551.679494143     A.U. after   11 cycles
 SCF Done:  E(RB3LYP) =  -551.679940597     A.U. after   11 cycles
 SCF Done:  E(RB3LYP) =  -551.680317058     A.U. after   11 cycles
 SCF Done:  E(RB3LYP) =  -551.680446872     A.U. after   11 cycles
 SCF Done:  E(RB3LYP) =  -551.680471559     A.U. after    9 cycles
 SCF Done:  E(RB3LYP) =  -551.680484788     A.U. after    9 cycles
 SCF Done:  E(RB3LYP) =  -551.680500841     A.U. after    7 cycles
 SCF Done:  E(RB3LYP) =  -551.680501401     A.U. after    8 cycles
 SCF Done:  E(RB3LYP) =  -551.680501770     A.U. after    8 cycles
 SCF Done:  E(RB3LYP) =  -551.680502083     A.U. after    8 cycles
 SCF Done:  E(RB3LYP) =  -551.680502214     A.U. after    7 cycles
 SCF Done:  E(RB3LYP) =  -551.680502354     A.U. after    7 cycles
 SCF Done:  E(RB3LYP) =  -551.680502452     A.U. after    7 cycles
 SCF Done:  E(RB3LYP) =  -551.680502461     A.U. after    6 cycles
 SCF Done:  E(RB3LYP) =  -551.680502463     A.U. after    6 cycles
 Optimization completed on the basis of negligible forces.
    -- Stationary point found.
 Normal termination of Gaussian 09 at Thu Aug 27 17:16:55 2020.

 ----------------------------------------------------------------------
 #N Geom=AllCheck Guess=TCheck SCRF=Check GenChk RB3LYP/6-31+G(d,p) Fre
 q
 ----------------------------------------------------------------------

 Structure from the checkpoint file:  "b3lyp_PM6_2H2O_dienophile_pm6_cpcmtoluene_1.chk"
 -------------------
 Title Card Required
 -------------------
 Charge =  0 Multiplicity = 1

                         Standard orientation:
 ---------------------------------------------------------------------
 Center     Atomic      Atomic             Coordinates (Angstroms)
 Number     Number       Type             X           Y           Z
 ---------------------------------------------------------------------
      1          6           0        1.136718    0.327987    0.000101
      2          6           0        0.664367   -1.096997    0.000167
      3          6           0       -0.673586   -1.091986    0.000139
      4          6           0       -1.138136    0.335893    0.000061
      5          1           0        1.358148   -1.927523    0.000202
      6          1           0       -1.373694   -1.917189    0.000180
      7          6           0        0.021141    2.588415   -0.000149
      8          1           0       -1.012910    2.933273    0.001921
      9          1           0        0.536069    2.957624    0.889777
     10          1           0        0.532410    2.957571   -0.892225
     11          7           0        0.003346    1.132673    0.000083
     12          8           0       -2.287203    0.754931    0.000009
     13          8           0        2.286535    0.746249    0.000091
     14          8           0       -3.829835   -1.653311   -0.000434
     15          1           0       -4.794581   -1.639211    0.001883
     16          1           0       -3.542382   -0.722041   -0.000317
     17          8           0        3.817382   -1.667706    0.000149
     18          1           0        3.533291   -0.735257    0.000117
     19          1           0        4.782169   -1.657137   -0.002557
 ---------------------------------------------------------------------

 SCF Done:  E(RB3LYP) =  -551.680502463     A.U. after    1 cycles

 The electronic state is 1-A.
 Alpha  occ. eigenvalues --  -19.18692 -19.18662 -19.15526 -19.15500 -14.41219
 Alpha  occ. eigenvalues --  -10.34179 -10.34051 -10.24168 -10.24126 -10.24039
 Alpha  occ. eigenvalues --   -1.10370  -1.08561  -1.00776  -1.00720  -0.99092
 Alpha  occ. eigenvalues --   -0.85045  -0.73355  -0.70061  -0.63182  -0.57843
 Alpha  occ. eigenvalues --   -0.53613  -0.53083  -0.52441  -0.50966  -0.48812
 Alpha  occ. eigenvalues --   -0.47304  -0.46205  -0.45031  -0.43425  -0.42520
 Alpha  occ. eigenvalues --   -0.41996  -0.38712  -0.38386  -0.32801  -0.32592
 Alpha  occ. eigenvalues --   -0.31336  -0.31273  -0.30308  -0.29552
 Alpha virt. eigenvalues --   -0.11829  -0.00159   0.01465   0.01745   0.02587
 Alpha virt. eigenvalues --    0.03582   0.04107   0.04207   0.04441   0.05114
 Alpha virt. eigenvalues --    0.07754   0.08041   0.08319   0.09042   0.09490

 Mulliken charges:
               1
     1  C    0.401370
     2  C   -0.091506
     3  C   -0.117232
     4  C    0.375788
     5  H    0.203239
     6  H    0.202991
     7  C   -0.230219
     8  H    0.183781
     9  H    0.175578
    10  H    0.175560
    11  N   -0.160420
    12  O   -0.569772
    13  O   -0.564572
    14  O   -0.776385
    15  H    0.386246
    16  H    0.397738
    17  O   -0.774359
    18  H    0.396501
    19  H    0.385672
 Sum of Mulliken charges =   0.00000

 Dipole moment (field-independent basis, Debye):
    X=             -0.0466    Y=              2.6437    Z=             -0.0004  Tot=              2.6441
 Quadrupole moment (field-independent basis, Debye-Ang):
   XX=            -55.4758   YY=            -60.6138   ZZ=            -61.3601
   XY=             -0.1407   XZ=             -0.0535   YZ=              0.0005

  Exact polarizability: 139.322   0.787  95.259  -0.001  -0.005  61.743
 Approx polarizability: 195.974   0.833 108.915  -0.006  -0.005  74.814

                      1                      2                      3
                      A                      A                      A
 Frequencies --     19.5344                36.8345                40.8551
 Red. masses --      1.1522                 3.2937                12.5158
 Frc consts  --      0.0003                 0.0026                 0.0123
 IR Inten    --      0.1609                 1.0228                 0.0057

                      4                      5                      6
                      A                      A                      A
 Frequencies --     65.5133                66.6299                71.8041
 Red. masses --      5.6913                 1.0762                 1.0864
 Frc consts  --      0.0144                 0.0028                 0.0033
 IR Inten    --      5.9948                 2.4465               401.6198

                      7                      8                      9
                      A                      A                      A
 Frequencies --     96.3661               144.2584               145.3432
 Red. masses --      5.5941                 6.3912                 6.1794
 Frc consts  --      0.0306                 0.0784                 0.0769
 IR Inten    --     36.3678                 0.0137                12.6184

                     10                     11                     12
                      A                      A                      A
 Frequencies --    153.6822               176.8672               290.6054
 Red. masses --      5.0385                 4.2629                 3.3822
 Frc consts  --      0.0701                 0.0786                 0.1683
 IR Inten    --      6.6241                 4.5496                44.4215

                     13                     14                     15
                      A                      A                      A
 Frequencies --    302.0075               378.5167               390.6348
 Red. masses --      4.0445                 1.4591                 1.1249
 Frc consts  --      0.2173                 0.1232                 0.1011
 IR Inten    --      0.0028               228.3087               312.6842

                     16                     17                     18
                      A                      A                      A
 Frequencies --    422.1405               512.6599               516.2173
 Red. masses --      2.7773                 1.0451                 1.0455
 Frc consts  --      0.2916                 0.1618                 0.1642
 IR Inten    --      8.0711                95.3608               142.0916

                     19                     20                     21
                      A                      A                      A
 Frequencies --    585.1502               615.6857               637.2138
 Red. masses --      4.2703                 8.8157                 2.2783
 Frc consts  --      0.8615                 1.9689                 0.5450
 IR Inten    --      0.0153                 0.3439                 0.3488

                     22                     23                     24
                      A                      A                      A
 Frequencies --    706.0288               741.1020               769.0626
 Red. masses --      7.6072                 5.9420                 8.1593
 Frc consts  --      2.2342                 1.9228                 2.8433
 IR Inten    --     71.0461                 0.1033                 0.0004

                     25                     26                     27
                      A                      A                      A
 Frequencies --    847.1294               965.2127               987.4693
 Red. masses --      1.9303                 2.2130                 1.2830
 Frc consts  --      0.8162                 1.2147                 0.7371
 IR Inten    --    102.0182                48.9332                 0.0077

                     28                     29                     30
                      A                      A                      A
 Frequencies --   1070.3349              1127.0708              1152.3143
 Red. masses --      1.9959                 2.8152                 1.2915
 Frc consts  --      1.3472                 2.1070                 1.0104
 IR Inten    --     16.7174                54.6868                 0.5972

                     31                     32                     33
                      A                      A                      A
 Frequencies --   1158.6429              1284.1456              1335.5552
 Red. masses --      1.8796                 2.9081                 1.6163
 Frc consts  --      1.4867                 2.8255                 1.6986
 IR Inten    --      0.2645                58.5783                10.7872

                     34                     35                     36
                      A                      A                      A
 Frequencies --   1425.0473              1478.7753              1486.8838
 Red. masses --      2.3370                 1.7457                 1.0387
 Frc consts  --      2.7962                 2.2492                 1.3530
 IR Inten    --    144.2816               138.6854                14.6176

                     37                     38                     39
                      A                      A                      A
 Frequencies --   1509.1738              1620.7358              1626.2298
 Red. masses --      1.1202                 1.1127                 1.0834
 Frc consts  --      1.5033                 1.7221                 1.6882
 IR Inten    --     20.8442               497.7301                67.3461

                     40                     41                     42
                      A                      A                      A
 Frequencies --   1649.5909              1735.6608              1812.7377
 Red. masses --      6.5056                 8.6718                10.6468
 Frc consts  --     10.4302                15.3919                20.6129
 IR Inten    --      4.2677              1162.4615                 1.7771

                     43                     44                     45
                      A                      A                      A
 Frequencies --   3066.1096              3139.6255              3173.7557
 Red. masses --      1.0325                 1.1068                 1.1045
 Frc consts  --      5.7191                 6.4280                 6.5549
 IR Inten    --     33.8177                13.3964                 1.0446

                     46                     47                     48
                      A                      A                      A
 Frequencies --   3253.0133              3270.6600              3660.1605
 Red. masses --      1.0912                 1.1098                 1.0564
 Frc consts  --      6.8034                 6.9945                 8.3382
 IR Inten    --     14.9921                 8.8571               490.5216

                     49                     50                     51
                      A                      A                      A
 Frequencies --   3664.7439              3888.1551              3888.5632
 Red. masses --      1.0560                 1.0730                 1.0732
 Frc consts  --      8.3558                 9.5571                 9.5609
 IR Inten    --    437.1853               218.0284                69.7529

 - Thermochemistry -
 -------------------
 Temperature   298.150 Kelvin.  Pressure   1.00000 Atm.
 Atom     1 has atomic number  6 and mass  12.00000

 Molecular mass:   147.05316 amu.
 Principal axes and moments of inertia in atomic units:
                           1         2         3
     Eigenvalues --   992.350672696.878053677.79982
           X            1.00000   0.00021  -0.00003
           Y           -0.00021   1.00000   0.00000
           Z            0.00003   0.00000   1.00000
 This molecule is an asymmetric top.
 Rotational symmetry number  1.
 Warning -- assumption of classical behavior for rotation
           may cause significant error
 Rotational temperatures (Kelvin)      0.08728     0.03212     0.02355
 Rotational constants (GHZ):           1.81865     0.66920     0.49071
 Zero-point vibrational energy     377793.9 (Joules/Mol)
                                   90.29491 (Kcal/Mol)
 Warning -- explicit consideration of  20 degrees of freedom as
           vibrations may cause significant error
 Vibrational temperatures:     28.11    53.00    58.78    94.26    95.87
          (Kelvin)            103.31   138.65   207.56   209.12   221.11
                              254.47   418.12   434.52   544.60   562.04
                              607.37   737.60   742.72   841.90   885.83
                              916.81  1015.82  1066.28  1106.51  1218.83
                             1388.72  1420.75  1539.97  1621.60  1657.92
                             1667.03  1847.60  1921.56  2050.32  2127.63
                             2139.29  2171.36  2331.87  2339.78  2373.39
                             2497.23  2608.12  4411.44  4517.22  4566.32
                             4680.35  4705.74  5266.15  5272.74  5594.18
                             5594.77

 Zero-point correction=                           0.143894 (Hartree/Particle)
 Thermal correction to Energy=                    0.158281
 Thermal correction to Enthalpy=                  0.159226
 Thermal correction to Gibbs Free Energy=         0.099666
 Sum of electronic and zero-point Energies=           -551.536608
 Sum of electronic and thermal Energies=              -551.522221
 Sum of electronic and thermal Enthalpies=            -551.521277
 Sum of electronic and thermal Free Energies=         -551.580837

                     E (Thermal)             CV                S
                      KCal/Mol        Cal/Mol-Kelvin    Cal/Mol-Kelvin
 Total                   99.323             46.105            125.354
 Electronic               0.000              0.000              0.000
 Translational            0.889              2.981             40.868
 Rotational               0.889              2.981             30.666
 Vibrational             97.546             40.143             53.821
 Vibration     1          0.593              1.986              6.681
 Vibration     2          0.594              1.982              5.422
 Vibration     3          0.594              1.981              5.217
 Vibration     4          0.597              1.971              4.284
 Vibration     5          0.598              1.970              4.251
 Vibration     6          0.598              1.967              4.103
 Vibration     7          0.603              1.952              3.527
 Vibration     8          0.616              1.909              2.747
 Vibration     9          0.617              1.908              2.732
 Vibration    10          0.619              1.899              2.626
 Vibration    11          0.628              1.871              2.361
 Vibration    12          0.687              1.691              1.470
 Vibration    13          0.694              1.670              1.406
 Vibration    14          0.749              1.516              1.045
 Vibration    15          0.758              1.490              0.998
 Vibration    16          0.784              1.422              0.885
 Vibration    17          0.868              1.222              0.627
 Vibration    18          0.871              1.214              0.619
 Vibration    19          0.942              1.063              0.476
 Vibration    20          0.975              0.999              0.423

 Optimization completed on the basis of negligible forces.
    -- Stationary point found.
 Normal termination of Gaussian 09 at Thu Aug 27 17:21:12 2020.
