 Gaussian 09, Revision D.01,
 Gaussian 09:  ES64L-G09RevD.01 24-Apr-2013

 ----------------------------------------------------------------------
 # freq b3lyp/6-31+g(d,p) scrf=(cpcm,solvent=toluene) geom=connectivity
  empiricaldispersion=gd3
 ----------------------------------------------------------------------

 -------------------
 Title Card Required
 -------------------
 Symbolic Z-matrix:
 Charge =  0 Multiplicity = 1

                         Standard orientation:
 ---------------------------------------------------------------------
 Center     Atomic      Atomic             Coordinates (Angstroms)
 Number     Number       Type             X           Y           Z
 ---------------------------------------------------------------------
      1          6           0        2.679967    0.440689    0.895924
      2          6           0        1.635953   -0.601035    0.788982
      3          6           0        0.406995    0.055810    0.610667
      4          6           0        0.683941    1.512705    0.594992
      5          1           0        1.786545   -1.563399    1.255774
      6          1           0       -0.549193   -0.316123    0.949039
      7          6           0        2.744380    2.957687    0.591196
      8          1           0        2.645352    3.394690   -0.405857
      9          1           0        2.313603    3.638740    1.329172
     10          1           0        3.797028    2.786144    0.817019
     11          7           0        2.063653    1.673570    0.644782
     12          8           0       -0.115225    2.449241    0.524810
     13          8           0        3.875006    0.314277    1.157927
     14          6           0        1.141313   -2.110836   -1.546219
     15          1           0        1.144216   -3.197999   -1.492462
     16          6           0       -0.094348   -1.470808   -1.689439
     17          1           0       -0.989453   -2.087521   -1.703687
     18          6           0        2.326775   -1.439630   -1.247374
     19          1           0        2.422793   -0.403377   -1.564160
     20          6           0        3.622997   -2.160825   -1.024632
     21          1           0        4.291030   -1.587655   -0.377771
     22          1           0        3.468159   -3.147766   -0.580898
     23          1           0        4.137570   -2.290300   -1.986598
     24          6           0       -0.239456   -0.090488   -1.545059
     25          1           0        0.570529    0.573703   -1.834522
     26          6           0       -1.580658    0.582964   -1.620012
     27          1           0       -1.863610    0.753124   -2.664657
     28          1           0       -1.553278    1.546676   -1.115123
     29          6           0       -3.402286    0.052047   -0.052171
     30          6           0       -3.459809    1.478438    0.423599
     31          1           0       -3.713093    2.144751   -0.407183
     32          1           0       -4.216793    1.560089    1.202269
     33          1           0       -2.487945    1.796932    0.815253
     34          8           0       -2.585515   -0.292511   -1.054473
     35          8           0       -4.084081   -0.851365    0.427020
     36          1           0        4.181469   -1.352372    1.999498
     37          1           0        0.173690    3.284112   -1.247816
     38          1           0       -3.273146   -2.543077   -0.211092
     39          1           0       -5.258220   -0.418492    1.824228
     40          8           0       -2.767862   -3.334877   -0.471766
     41          1           0       -3.215990   -4.078172   -0.049730
     42          8           0       -5.771237    0.012532    2.534277
     43          1           0       -6.489025   -0.594563    2.751302
     44          8           0        0.397398    3.125905   -2.180938
     45          1           0        0.390183    3.989598   -2.611709
     46          8           0        4.115791   -2.252574    2.372197
     47          1           0        4.533210   -2.208068    3.241089
 ---------------------------------------------------------------------

 SCF Done:  E(RB3LYP) =  -1167.12070722     A.U. after   15 cycles

 The electronic state is 1-A.
 Alpha  occ. eigenvalues --  -19.22332 -19.17415 -19.17004 -19.16977 -19.16869
 Alpha  occ. eigenvalues --  -19.14918 -19.14877 -19.14770 -14.40343 -10.35436
 Alpha  occ. eigenvalues --  -10.32855 -10.32707 -10.26943 -10.23542 -10.23260
 Alpha  occ. eigenvalues --  -10.23240 -10.22834 -10.22245 -10.20986 -10.20794
 Alpha  occ. eigenvalues --  -10.20738 -10.18948  -1.13356  -1.08919  -1.06967
 Alpha  occ. eigenvalues --   -1.04737  -1.02117  -1.00153  -1.00078  -0.99946
 Alpha  occ. eigenvalues --   -0.97762  -0.85339  -0.82611  -0.80201  -0.76831
 Alpha  occ. eigenvalues --   -0.74645  -0.72112  -0.69731  -0.67534  -0.63174
 Alpha  occ. eigenvalues --   -0.62166  -0.59330  -0.56611  -0.54949  -0.54218
 Alpha  occ. eigenvalues --   -0.53252  -0.52927  -0.52668  -0.52034  -0.51281
 Alpha  occ. eigenvalues --   -0.50886  -0.50664  -0.50103  -0.48118  -0.47803
 Alpha  occ. eigenvalues --   -0.46451  -0.45806  -0.45387  -0.44593  -0.44300
 Alpha  occ. eigenvalues --   -0.43508  -0.42434  -0.42204  -0.41550  -0.41275
 Alpha  occ. eigenvalues --   -0.40661  -0.40505  -0.40096  -0.39441  -0.38452
 Alpha  occ. eigenvalues --   -0.38130  -0.37994  -0.37266  -0.36937  -0.36101
 Alpha  occ. eigenvalues --   -0.35449  -0.32819  -0.32584  -0.31486  -0.31146
 Alpha  occ. eigenvalues --   -0.30792  -0.30642  -0.30521  -0.29826  -0.29213
 Alpha  occ. eigenvalues --   -0.25879  -0.24963
 Alpha virt. eigenvalues --   -0.09313  -0.05627  -0.02697  -0.00731   0.00204
 Alpha virt. eigenvalues --    0.00743   0.01269   0.01860   0.02412   0.02713
 Alpha virt. eigenvalues --    0.02885   0.03408   0.03695   0.03954   0.04959

 Mulliken charges:
               1
     1  C    0.256370
     2  C   -0.362024
     3  C    0.240820
     4  C   -0.351885
     5  H    0.196529
     6  H    0.180552
     7  C   -0.201423
     8  H    0.175067
     9  H    0.172909
    10  H    0.183046
    11  N    0.026492
    12  O   -0.496570
    13  O   -0.540233
    14  C   -0.392576
    15  H    0.140487
    16  C    0.279885
    17  H    0.191600
    18  C    0.517136
    19  H    0.144745
    20  C   -0.662995
    21  H    0.175018
    22  H    0.163998
    23  H    0.166807
    24  C    0.224097
    25  H    0.178013
    26  C   -0.709968
    27  H    0.177226
    28  H    0.173792
    29  C    0.387021
    30  C   -0.416484
    31  H    0.191920
    32  H    0.203859
    33  H    0.214381
    34  O   -0.301956
    35  O   -0.535074
    36  H    0.395585
    37  H    0.379958
    38  H    0.413090
    39  H    0.423031
    40  O   -0.802977
    41  H    0.385653
    42  O   -0.800028
    43  H    0.371069
    44  O   -0.769219
    45  H    0.398117
    46  O   -0.761780
    47  H    0.376918
 Sum of Mulliken charges =   0.00000

 Dipole moment (field-independent basis, Debye):
    X=              1.2216    Y=              3.7483    Z=             -2.2473  Tot=              4.5379
 Quadrupole moment (field-independent basis, Debye-Ang):
   XX=           -144.0337   YY=           -123.9719   ZZ=           -136.5441
   XY=             11.0058   XZ=              5.0969   YZ=             -9.9970

  Exact polarizability: 291.715 -15.435 264.189  12.856  23.451 222.441
 Approx polarizability: 366.309 -25.547 337.533  24.710  39.265 307.877

 ******    1 imaginary frequencies (negative Signs) ******

                      1                      2                      3
                      A                      A                      A
 Frequencies --   -419.9600                10.9647                17.5646
 Red. masses --      8.3207                 7.4503                 5.5496
 Frc consts  --      0.8646                 0.0005                 0.0010
 IR Inten    --      4.1376                 1.0025                 1.3885

                      4                      5                      6
                      A                      A                      A
 Frequencies --     27.6653                33.6258                36.6413
 Red. masses --      5.7357                 4.7777                 6.4657
 Frc consts  --      0.0026                 0.0032                 0.0051
 IR Inten    --      3.8892                18.7682                 3.9419

                      7                      8                      9
                      A                      A                      A
 Frequencies --     41.7431                47.2078                48.9137
 Red. masses --      1.4087                 4.9696                 4.4103
 Frc consts  --      0.0014                 0.0065                 0.0062
 IR Inten    --    100.3626                13.8366                13.5540

                     10                     11                     12
                      A                      A                      A
 Frequencies --     58.6337                63.2542                71.4659
 Red. masses --      5.3464                 5.2435                 5.2684
 Frc consts  --      0.0108                 0.0124                 0.0159
 IR Inten    --     17.4289                 0.8359                 8.4310

                     13                     14                     15
                      A                      A                      A
 Frequencies --     72.2969                87.6427                94.9786
 Red. masses --      4.7675                 4.1747                 1.8024
 Frc consts  --      0.0147                 0.0189                 0.0096
 IR Inten    --     15.2928                 9.5588                 6.4062

                     16                     17                     18
                      A                      A                      A
 Frequencies --     99.4757               108.0651               110.8241
 Red. masses --      1.6607                 1.2192                 3.0103
 Frc consts  --      0.0097                 0.0084                 0.0218
 IR Inten    --      8.7368               162.2797                12.1416

                     19                     20                     21
                      A                      A                      A
 Frequencies --    124.5896               127.4036               136.8695
 Red. masses --      1.2439                 2.3584                 5.3668
 Frc consts  --      0.0114                 0.0226                 0.0592
 IR Inten    --    133.1436                49.8012                 9.4015

                     22                     23                     24
                      A                      A                      A
 Frequencies --    143.8495               146.7988               155.1686
 Red. masses --      5.6526                 1.1289                 3.1196
 Frc consts  --      0.0689                 0.0143                 0.0443
 IR Inten    --     17.2777               151.8712                12.3123

                     25                     26                     27
                      A                      A                      A
 Frequencies --    157.1795               165.9532               179.3054
 Red. masses --      4.5973                 5.4783                 1.7459
 Frc consts  --      0.0669                 0.0889                 0.0331
 IR Inten    --     18.2471                 5.1131                 7.0702

                     28                     29                     30
                      A                      A                      A
 Frequencies --    193.1627               206.5450               215.5791
 Red. masses --      3.9163                 4.6401                 1.1870
 Frc consts  --      0.0861                 0.1166                 0.0325
 IR Inten    --      9.9077                16.4714                 8.2429

                     31                     32                     33
                      A                      A                      A
 Frequencies --    216.7547               246.1276               274.0885
 Red. masses --      5.0664                 3.0832                 3.3469
 Frc consts  --      0.1402                 0.1100                 0.1481
 IR Inten    --      5.7711                10.2999                10.7542

                     34                     35                     36
                      A                      A                      A
 Frequencies --    293.8941               301.7683               327.0659
 Red. masses --      2.9167                 2.8657                 1.3274
 Frc consts  --      0.1484                 0.1538                 0.0837
 IR Inten    --     18.4853                 7.0537               112.0762

                     37                     38                     39
                      A                      A                      A
 Frequencies --    334.9030               349.2801               365.6600
 Red. masses --      1.3379                 1.2455                 1.1928
 Frc consts  --      0.0884                 0.0895                 0.0940
 IR Inten    --    168.4489                91.0399               162.3571

                     40                     41                     42
                      A                      A                      A
 Frequencies --    368.3222               397.4669               409.3885
 Red. masses --      2.6738                 1.1135                 4.7816
 Frc consts  --      0.2137                 0.1036                 0.4722
 IR Inten    --     24.7419               195.1800                18.2605

                     43                     44                     45
                      A                      A                      A
 Frequencies --    433.4276               469.5596               495.7135
 Red. masses --      4.5932                 2.8079                 2.1946
 Frc consts  --      0.5084                 0.3648                 0.3177
 IR Inten    --     13.4227                 3.2157                44.7380

                     46                     47                     48
                      A                      A                      A
 Frequencies --    506.8755               528.6883               545.5987
 Red. masses --      1.2741                 1.1398                 4.2082
 Frc consts  --      0.1929                 0.1877                 0.7381
 IR Inten    --     65.4407                87.5807                11.7592

                     49                     50                     51
                      A                      A                      A
 Frequencies --    570.8234               591.1595               603.5178
 Red. masses --      1.0855                 2.1295                 2.1425
 Frc consts  --      0.2084                 0.4385                 0.4598
 IR Inten    --    122.1565                72.8853               108.6404

                     52                     53                     54
                      A                      A                      A
 Frequencies --    613.2830               619.3503               629.3783
 Red. masses --      4.4812                 2.4347                 2.3985
 Frc consts  --      0.9930                 0.5503                 0.5598
 IR Inten    --     54.2047                70.7712                24.2905

                     55                     56                     57
                      A                      A                      A
 Frequencies --    708.2960               723.7003               724.8750
 Red. masses --      4.0823                 6.7945                 5.4823
 Frc consts  --      1.2067                 2.0966                 1.6972
 IR Inten    --      5.3860                53.9404                 9.2527

                     58                     59                     60
                      A                      A                      A
 Frequencies --    760.2753               773.4964               801.0521
 Red. masses --      7.9340                 5.7608                 1.4743
 Frc consts  --      2.7020                 2.0307                 0.5574
 IR Inten    --      4.4972                 4.0139                22.5709

                     61                     62                     63
                      A                      A                      A
 Frequencies --    812.4745               859.9053               912.7909
 Red. masses --      2.4184                 1.4141                 1.5490
 Frc consts  --      0.9406                 0.6161                 0.7604
 IR Inten    --      8.0351                 7.4918                 4.6051

                     64                     65                     66
                      A                      A                      A
 Frequencies --    920.7653               945.6121               971.6233
 Red. masses --      1.2923                 1.5402                 1.4447
 Frc consts  --      0.6455                 0.8114                 0.8035
 IR Inten    --     12.7062                14.9250                88.9054

                     67                     68                     69
                      A                      A                      A
 Frequencies --    973.7540               998.0839              1010.3423
 Red. masses --      1.9673                 1.8459                 1.6949
 Frc consts  --      1.0991                 1.0834                 1.0194
 IR Inten    --     69.8790                52.8093                 4.2526

                     70                     71                     72
                      A                      A                      A
 Frequencies --   1029.3582              1044.9503              1060.1000
 Red. masses --      1.2749                 1.4898                 1.4638
 Frc consts  --      0.7959                 0.9585                 0.9693
 IR Inten    --     33.9948                22.5869                41.2611

                     73                     74                     75
                      A                      A                      A
 Frequencies --   1067.9389              1072.9112              1088.0788
 Red. masses --      1.7396                 1.5355                 3.2315
 Frc consts  --      1.1689                 1.0415                 2.2541
 IR Inten    --     11.9874                13.5235               110.6657

                     76                     77                     78
                      A                      A                      A
 Frequencies --   1125.9340              1131.3453              1149.1401
 Red. masses --      2.5322                 1.9472                 3.1293
 Frc consts  --      1.8914                 1.4684                 2.4347
 IR Inten    --     30.3455                18.5485                75.3292

                     79                     80                     81
                      A                      A                      A
 Frequencies --   1154.5959              1182.4785              1245.5382
 Red. masses --      1.3672                 2.0522                 1.3902
 Frc consts  --      1.0739                 1.6907                 1.2707
 IR Inten    --     13.5242                 6.8038               251.9066

                     82                     83                     84
                      A                      A                      A
 Frequencies --   1275.2443              1281.8710              1289.2674
 Red. masses --      1.7880                 2.1388                 1.4118
 Frc consts  --      1.7132                 2.0707                 1.3826
 IR Inten    --     51.0954                10.9609                15.4905

                     85                     86                     87
                      A                      A                      A
 Frequencies --   1333.7677              1337.6773              1351.2752
 Red. masses --      1.7492                 1.8567                 1.4547
 Frc consts  --      1.8334                 1.9574                 1.5650
 IR Inten    --      9.1770               275.2221                69.4258

                     88                     89                     90
                      A                      A                      A
 Frequencies --   1370.2281              1409.3748              1417.1967
 Red. masses --      1.8644                 2.2700                 1.3229
 Frc consts  --      2.0624                 2.6566                 1.5654
 IR Inten    --     20.7591               144.9835                21.5628

                     91                     92                     93
                      A                      A                      A
 Frequencies --   1420.3533              1422.4879              1426.1671
 Red. masses --      1.4311                 2.0682                 1.5978
 Frc consts  --      1.7010                 2.4657                 1.9148
 IR Inten    --    134.5133                51.4010                34.7846

                     94                     95                     96
                      A                      A                      A
 Frequencies --   1472.0082              1473.0014              1475.0964
 Red. masses --      1.5344                 1.0887                 1.0717
 Frc consts  --      1.9589                 1.3917                 1.3739
 IR Inten    --    229.1652                 6.5409                27.4795

                     97                     98                     99
                      A                      A                      A
 Frequencies --   1484.4981              1489.4683              1491.9508
 Red. masses --      1.0687                 1.0934                 1.0792
 Frc consts  --      1.3876                 1.4292                 1.4154
 IR Inten    --     26.2115                18.4359                26.5305

                    100                    101                    102
                      A                      A                      A
 Frequencies --   1502.7431              1512.9617              1587.9631
 Red. masses --      1.0838                 1.0788                 2.8622
 Frc consts  --      1.4421                 1.4549                 4.2524
 IR Inten    --     25.4124                 9.8535                93.3062

                    103                    104                    105
                      A                      A                      A
 Frequencies --   1595.4683              1604.1231              1630.2468
 Red. masses --      3.3120                 1.1795                 1.1004
 Frc consts  --      4.9673                 1.7882                 1.7231
 IR Inten    --     37.1804               333.2094                73.5064

                    106                    107                    108
                      A                      A                      A
 Frequencies --   1632.0721              1636.2680              1701.1216
 Red. masses --      1.0896                 1.0836                 6.9831
 Frc consts  --      1.7101                 1.7093                11.9061
 IR Inten    --    202.5480               168.6155              1108.5193

                    109                    110                    111
                      A                      A                      A
 Frequencies --   1729.7520              1767.4652              3026.9847
 Red. masses --      8.3797                 9.9959                 1.0475
 Frc consts  --     14.7722                18.3982                 5.6549
 IR Inten    --    534.4575               217.5673                24.0268

                    112                    113                    114
                      A                      A                      A
 Frequencies --   3054.7249              3060.3229              3065.6117
 Red. masses --      1.0386                 1.0330                 1.0700
 Frc consts  --      5.7100                 5.7002                 5.9249
 IR Inten    --      4.1047                44.8427                18.0692

                    115                    116                    117
                      A                      A                      A
 Frequencies --   3103.7072              3121.8271              3132.3071
 Red. masses --      1.0874                 1.1007                 1.1063
 Frc consts  --      6.1715                 6.3204                 6.3954
 IR Inten    --      8.6442                 7.4479                11.7164

                    118                    119                    120
                      A                      A                      A
 Frequencies --   3143.2461              3159.8937              3168.8827
 Red. masses --      1.1006                 1.0910                 1.0871
 Frc consts  --      6.4069                 6.4183                 6.4316
 IR Inten    --      5.6687                 3.3916                28.5802

                    121                    122                    123
                      A                      A                      A
 Frequencies --   3170.0029              3171.2684              3182.5098
 Red. masses --      1.1038                 1.0941                 1.1019
 Frc consts  --      6.5354                 6.4832                 6.5756
 IR Inten    --      1.2005                 2.9802                 2.3627

                    124                    125                    126
                      A                      A                      A
 Frequencies --   3183.2490              3195.7510              3254.2196
 Red. masses --      1.0909                 1.0896                 1.0913
 Frc consts  --      6.5130                 6.5561                 6.8093
 IR Inten    --      5.6226                 3.2207                 0.6064

                    127                    128                    129
                      A                      A                      A
 Frequencies --   3268.0061              3622.4669              3629.5465
 Red. masses --      1.0983                 1.0582                 1.0577
 Frc consts  --      6.9111                 8.1816                 8.2093
 IR Inten    --      5.3796               599.2846               722.6917

                    130                    131                    132
                      A                      A                      A
 Frequencies --   3670.0185              3701.2460              3880.6372
 Red. masses --      1.0558                 1.0537                 1.0714
 Frc consts  --      8.3784                 8.5051                 9.5058
 IR Inten    --    313.0621               159.0834               130.8506

                    133                    134                    135
                      A                      A                      A
 Frequencies --   3882.2117              3884.2527              3887.8821
 Red. masses --      1.0723                 1.0721                 1.0752
 Frc consts  --      9.5221                 9.5305                 9.5756
 IR Inten    --     91.2370               167.7251               128.3782

 - Thermochemistry -
 -------------------
 Temperature   298.150 Kelvin.  Pressure   1.00000 Atm.
 Atom     1 has atomic number  6 and mass  12.00000

 Molecular mass:   323.15802 amu.
 Principal axes and moments of inertia in atomic units:
                           1         2         3
     Eigenvalues --  5751.59743********************
           X            0.99995  -0.00819  -0.00643
           Y            0.00807   0.99978  -0.01931
           Z            0.00659   0.01925   0.99979
 This molecule is an asymmetric top.
 Rotational symmetry number  1.
 Warning -- assumption of classical behavior for rotation
           may cause significant error
 Rotational temperatures (Kelvin)      0.01506     0.00756     0.00662
 Rotational constants (GHZ):           0.31378     0.15755     0.13787
    1 imaginary frequencies ignored.
 Zero-point vibrational energy     995692.4 (Joules/Mol)
                                  237.97620 (Kcal/Mol)
 Warning -- explicit consideration of  52 degrees of freedom as
           vibrations may cause significant error
 Vibrational temperatures:     15.78    25.27    39.80    48.38    52.72
          (Kelvin)             60.06    67.92    70.38    84.36    91.01
                              102.82   104.02   126.10   136.65   143.12
                              155.48   159.45   179.26   183.31   196.92
                              206.97   211.21   223.25   226.15   238.77
                              257.98   277.92   297.17   310.17   311.86
                              354.12   394.35   422.85   434.18   470.57
                              481.85   502.54   526.10   529.93   571.87
                              589.02   623.60   675.59   713.22   729.28
                              760.66   784.99   821.29   850.55   868.33
                              882.38   891.11   905.53  1019.08  1041.24
                             1042.93  1093.87  1112.89  1152.53  1168.97
                             1237.21  1313.30  1324.77  1360.52  1397.95
                             1401.01  1436.02  1453.66  1481.01  1503.45
                             1525.25  1536.52  1543.68  1565.50  1619.97
                             1627.75  1653.35  1661.20  1701.32  1792.05
                             1834.79  1844.32  1854.97  1918.99  1924.62
                             1944.18  1971.45  2027.77  2039.03  2043.57
                             2046.64  2051.93  2117.89  2119.32  2122.33
                             2135.86  2143.01  2146.58  2162.11  2176.81
                             2284.72  2295.52  2307.97  2345.56  2348.18
                             2354.22  2447.53  2488.72  2542.99  4355.15
                             4395.06  4403.12  4410.73  4465.54  4491.61
                             4506.69  4522.42  4546.38  4559.31  4560.92
                             4562.74  4578.92  4579.98  4597.97  4682.09
                             4701.93  5211.92  5222.10  5280.33  5325.26
                             5583.36  5585.63  5588.57  5593.79

 Zero-point correction=                           0.379239 (Hartree/Particle)
 Thermal correction to Energy=                    0.411935
 Thermal correction to Enthalpy=                  0.412879
 Thermal correction to Gibbs Free Energy=         0.310044
 Sum of electronic and zero-point Energies=          -1166.741468
 Sum of electronic and thermal Energies=             -1166.708772
 Sum of electronic and thermal Enthalpies=           -1166.707828
 Sum of electronic and thermal Free Energies=        -1166.810663

                     E (Thermal)             CV                S
                      KCal/Mol        Cal/Mol-Kelvin    Cal/Mol-Kelvin
 Total                  258.493            109.587            216.433
 Electronic               0.000              0.000              0.000
 Translational            0.889              2.981             43.214
 Rotational               0.889              2.981             35.110
 Vibrational            256.716            103.625            138.109
 Vibration     1          0.593              1.987              7.828
 Vibration     2          0.593              1.986              6.892
 Vibration     3          0.593              1.984              5.990
 Vibration     4          0.594              1.983              5.603
 Vibration     5          0.594              1.982              5.433
 Vibration     6          0.594              1.981              5.175
 Vibration     7          0.595              1.979              4.931
 Vibration     8          0.595              1.978              4.861
 Vibration     9          0.596              1.974              4.503
 Vibration    10          0.597              1.972              4.353
 Vibration    11          0.598              1.968              4.113
 Vibration    12          0.598              1.967              4.090
 Vibration    13          0.601              1.958              3.712
 Vibration    14          0.603              1.953              3.555
 Vibration    15          0.604              1.949              3.465
 Vibration    16          0.606              1.943              3.303
 Vibration    17          0.607              1.941              3.254
 Vibration    18          0.610              1.928              3.028
 Vibration    19          0.611              1.926              2.985
 Vibration    20          0.614              1.917              2.847
 Vibration    21          0.616              1.909              2.752
 Vibration    22          0.617              1.906              2.713
 Vibration    23          0.620              1.897              2.608
 Vibration    24          0.621              1.895              2.583
 Vibration    25          0.624              1.884              2.481
 Vibration    26          0.629              1.868              2.336
 Vibration    27          0.635              1.849              2.197
 Vibration    28          0.641              1.831              2.074
 Vibration    29          0.645              1.817              1.996
 Vibration    30          0.646              1.816              1.986
 Vibration    31          0.661              1.769              1.758
 Vibration    32          0.676              1.721              1.570
 Vibration    33          0.689              1.685              1.451
 Vibration    34          0.694              1.670              1.407
 Vibration    35          0.711              1.621              1.275
 Vibration    36          0.716              1.606              1.236
 Vibration    37          0.727              1.577              1.169
 Vibration    38          0.739              1.543              1.098
 Vibration    39          0.741              1.537              1.087
 Vibration    40          0.764              1.476              0.972
 Vibration    41          0.774              1.450              0.929
 Vibration    42          0.794              1.397              0.848
 Vibration    43          0.827              1.318              0.739
 Vibration    44          0.851              1.260              0.669
 Vibration    45          0.862              1.235              0.641
 Vibration    46          0.884              1.187              0.590
 Vibration    47          0.901              1.149              0.553
 Vibration    48          0.927              1.094              0.503
 Vibration    49          0.949              1.051              0.465
 Vibration    50          0.962              1.024              0.444
 Vibration    51          0.973              1.004              0.427
 Vibration    52          0.979              0.991              0.418

 Normal termination of Gaussian 09 at Fri Aug 28 16:30:18 2020.
