 Gaussian 09, Revision D.01,
 Gaussian 09:  ES64L-G09RevD.01 24-Apr-2013

 -------------------------------------------------
 #n wB97XD/Def2TZVP scrf(smd,solvent=toluene) freq
 -------------------------------------------------

 ---------------------------------
 dmad cycloaddition toluene - freq
 ---------------------------------
 Symbolic Z-matrix:
 Charge =  0 Multiplicity = 1

                         Standard orientation:
 ---------------------------------------------------------------------
 Center     Atomic      Atomic             Coordinates (Angstroms)
 Number     Number       Type             X           Y           Z
 ---------------------------------------------------------------------
      1          7           0        0.360380    0.310961   -0.495729
      2          7           0       -0.360390    0.310981    0.495741
      3          6           0        1.764490    0.364883   -0.173629
      4          6           0       -1.764500    0.364890    0.173641
      5          8           0       -2.358391    1.399039    0.141041
      6          8           0        2.358379    1.399033   -0.141059
      7          8           0       -2.236799   -0.852311    0.034091
      8          8           0        2.236811   -0.852307   -0.034079
      9          6           0        3.653631   -0.957156    0.176141
     10          1           0        3.852272   -2.019556    0.283691
     11          1           0        4.190991   -0.553605   -0.681319
     12          1           0        3.942021   -0.423765    1.080891
     13          6           0       -3.653619   -0.957172   -0.176149
     14          1           0       -4.190989   -0.553753    0.681361
     15          1           0       -3.942029   -0.423662   -1.080839
     16          1           0       -3.852238   -2.019552   -0.283859
 ---------------------------------------------------------------------

 SCF Done:  E(RwB97XD) =  -566.432885536     A.U. after   13 cycles

 The electronic state is 1-A.
 Alpha  occ. eigenvalues --  -19.32508 -19.32508 -19.26064 -19.26064 -14.53348
 Alpha  occ. eigenvalues --  -14.53286 -10.45586 -10.45585 -10.34734 -10.34733
 Alpha  occ. eigenvalues --   -1.26123  -1.24796  -1.18020  -1.15601  -1.15172
 Alpha  occ. eigenvalues --   -0.91773  -0.85242  -0.81107  -0.71186  -0.67115
 Alpha  occ. eigenvalues --   -0.66162  -0.62783  -0.60199  -0.59642  -0.59020
 Alpha  occ. eigenvalues --   -0.56911  -0.53966  -0.53931  -0.51845  -0.49415
 Alpha  occ. eigenvalues --   -0.48775  -0.47036  -0.46858  -0.41594  -0.41532
 Alpha  occ. eigenvalues --   -0.41238  -0.41110  -0.34568
 Alpha virt. eigenvalues --   -0.01270   0.07032   0.07769   0.12808   0.12906
 Alpha virt. eigenvalues --    0.15224   0.15556   0.18457   0.18587   0.19982
 Alpha virt. eigenvalues --    0.20029   0.22473   0.23993   0.25603   0.26981

 Mulliken charges:
               1
     1  N   -0.087949
     2  N   -0.087951
     3  C    0.415915
     4  C    0.415916
     5  O   -0.330413
     6  O   -0.330414
     7  O   -0.253382
     8  O   -0.253382
     9  C   -0.206883
    10  H    0.156103
    11  H    0.152787
    12  H    0.153823
    13  C   -0.206886
    14  H    0.152789
    15  H    0.153823
    16  H    0.156104
 Sum of Mulliken charges =   0.00000

 Dipole moment (field-independent basis, Debye):
    X=              0.0000    Y=             -4.7456    Z=              0.0000  Tot=              4.7456
 Quadrupole moment (field-independent basis, Debye-Ang):
   XX=            -35.6254   YY=            -62.4557   ZZ=            -56.1800
   XY=              0.0001   XZ=              1.9114   YZ=              0.0001

  Exact polarizability: 111.688   0.000  79.255  -1.976   0.000  60.371
 Approx polarizability:  88.629   0.000  84.650  -3.329   0.000  65.103

                      1                      2                      3
                      A                      A                      A
 Frequencies --     38.2743                78.8341                80.4238
 Red. masses --      6.2163                 4.5742                 4.9916
 Frc consts  --      0.0054                 0.0167                 0.0190
 IR Inten    --      0.0059                 2.6442                 1.7029

                      4                      5                      6
                      A                      A                      A
 Frequencies --     96.4328               128.1566               149.0183
 Red. masses --      4.2095                 1.7103                 1.1849
 Frc consts  --      0.0231                 0.0166                 0.0155
 IR Inten    --      1.3739                 0.0294                 0.1334

                      7                      8                      9
                      A                      A                      A
 Frequencies --    158.5068               256.3989               267.7657
 Red. masses --      1.6988                 7.2930                 9.4468
 Frc consts  --      0.0251                 0.2825                 0.3991
 IR Inten    --      0.0076                10.5313                 1.9620

                     10                     11                     12
                      A                      A                      A
 Frequencies --    282.9284               311.2279               444.7212
 Red. masses --      4.1963                 3.9678                 9.4489
 Frc consts  --      0.1979                 0.2264                 1.1010
 IR Inten    --     10.4880                17.5681                35.3011

                     13                     14                     15
                      A                      A                      A
 Frequencies --    606.7097               631.9663               649.3996
 Red. masses --      9.8943                11.1099                 8.2451
 Frc consts  --      2.1458                 2.6142                 2.0487
 IR Inten    --      0.6241                 0.0573                12.7692

                     16                     17                     18
                      A                      A                      A
 Frequencies --    847.8034               864.0661               917.4708
 Red. masses --     11.5784                 6.3697                 6.0013
 Frc consts  --      4.9033                 2.8020                 2.9763
 IR Inten    --     42.3536                 5.0044                65.0979

                     19                     20                     21
                      A                      A                      A
 Frequencies --    982.5698              1057.6946              1062.4786
 Red. masses --      9.0343                 8.4175                 9.3441
 Frc consts  --      5.1389                 5.5482                 6.2148
 IR Inten    --      6.2119                33.2664                 5.8300

                     22                     23                     24
                      A                      A                      A
 Frequencies --   1190.4215              1190.4432              1238.8681
 Red. masses --      1.2788                 1.2792                 1.4673
 Frc consts  --      1.0677                 1.0681                 1.3268
 IR Inten    --      2.2275                 0.3400                 1.3201

                     25                     26                     27
                      A                      A                      A
 Frequencies --   1239.0965              1301.3210              1342.2088
 Red. masses --      1.4960                 7.3758                 7.1551
 Frc consts  --      1.3533                 7.3592                 7.5946
 IR Inten    --     29.1624              1103.4265               325.8980

                     28                     29                     30
                      A                      A                      A
 Frequencies --   1488.6729              1488.7433              1496.0565
 Red. masses --      1.0410                 1.0407                 1.0631
 Frc consts  --      1.3592                 1.3590                 1.4019
 IR Inten    --      6.3244                25.4598                19.3132

                     31                     32                     33
                      A                      A                      A
 Frequencies --   1496.0925              1503.7383              1504.4376
 Red. masses --      1.0619                 1.1832                 1.1981
 Frc consts  --      1.4004                 1.5763                 1.5976
 IR Inten    --      8.7315                56.5844                 6.4856

                     34                     35                     36
                      A                      A                      A
 Frequencies --   1722.2961              1857.6633              1876.5515
 Red. masses --     13.9846                12.1111                12.0349
 Frc consts  --     24.4408                24.6244                24.9696
 IR Inten    --      0.4288                82.1035               789.8643

                     37                     38                     39
                      A                      A                      A
 Frequencies --   3085.5539              3085.7381              3172.6255
 Red. masses --      1.0303                 1.0303                 1.1085
 Frc consts  --      5.7792                 5.7803                 6.5741
 IR Inten    --     44.6090                 2.5884                 5.9609

                     40                     41                     42
                      A                      A                      A
 Frequencies --   3172.6852              3202.1528              3202.2018
 Red. masses --      1.1085                 1.1072                 1.1072
 Frc consts  --      6.5743                 6.6891                 6.6892
 IR Inten    --     17.3998                 3.3818                11.1009

 - Thermochemistry -
 -------------------
 Temperature   298.150 Kelvin.  Pressure   1.00000 Atm.
 Atom     1 has atomic number  7 and mass  14.00307

 Molecular mass:   146.03276 amu.
 Principal axes and moments of inertia in atomic units:
                           1         2         3
     Eigenvalues --   482.629573020.521133414.24993
           X            0.99998   0.00000   0.00604
           Y            0.00000   1.00000   0.00000
           Z           -0.00604   0.00000   0.99998
 This molecule is an asymmetric top.
 Rotational symmetry number  1.
 Warning -- assumption of classical behavior for rotation
           may cause significant error
 Rotational temperatures (Kelvin)      0.17946     0.02868     0.02537
 Rotational constants (GHZ):           3.73939     0.59749     0.52859
 Zero-point vibrational energy     303674.5 (Joules/Mol)
                                   72.57995 (Kcal/Mol)
 Warning -- explicit consideration of  13 degrees of freedom as
           vibrations may cause significant error
 Vibrational temperatures:     55.07   113.42   115.71   138.75   184.39
          (Kelvin)            214.40   228.06   368.90   385.25   407.07
                              447.79   639.85   872.92   909.26   934.34
                             1219.80  1243.20  1320.03  1413.70  1521.78
                             1528.67  1712.75  1712.78  1782.45  1782.78
                             1872.31  1931.14  2141.87  2141.97  2152.49
                             2152.54  2163.54  2164.55  2478.00  2672.76
                             2699.94  4439.42  4439.68  4564.69  4564.78
                             4607.18  4607.25

 Zero-point correction=                           0.115664 (Hartree/Particle)
 Thermal correction to Energy=                    0.126486
 Thermal correction to Enthalpy=                  0.127430
 Thermal correction to Gibbs Free Energy=         0.077580
 Sum of electronic and zero-point Energies=           -566.317222
 Sum of electronic and thermal Energies=              -566.306400
 Sum of electronic and thermal Enthalpies=            -566.305455
 Sum of electronic and thermal Free Energies=         -566.355306

                     E (Thermal)             CV                S
                      KCal/Mol        Cal/Mol-Kelvin    Cal/Mol-Kelvin
 Total                   79.371             34.889            104.919
 Electronic               0.000              0.000              0.000
 Translational            0.889              2.981             40.847
 Rotational               0.889              2.981             29.988
 Vibrational             77.594             28.928             34.084
 Vibration     1          0.594              1.982              5.346
 Vibration     2          0.600              1.963              3.920
 Vibration     3          0.600              1.962              3.881
 Vibration     4          0.603              1.952              3.525
 Vibration     5          0.611              1.925              2.974
 Vibration     6          0.618              1.904              2.685
 Vibration     7          0.621              1.893              2.568
 Vibration     8          0.666              1.752              1.686
 Vibration     9          0.673              1.732              1.611
 Vibration    10          0.682              1.705              1.516
 Vibration    11          0.700              1.652              1.356
 Vibration    12          0.804              1.373              0.812
 Vibration    13          0.965              1.018              0.438

 1\1\GINC-D10S0B3\Freq\RwB97XD\def2TZVP\C4H6N2O4\PMMASS\24-Feb-2022\0\\
 #n wB97XD/Def2TZVP scrf(smd,solvent=toluene) freq\\dmad cycloaddition
 toluene - freq\\0,1\N,0.36038,0.31096,-0.49573\N,-0.36039,0.31098,0.49
 574\C,1.76449,0.36488,-0.17363\C,-1.7645,0.36489,0.17364\O,-2.35839,1.
 39904,0.14104\O,2.35838,1.39903,-0.14106\O,-2.2368,-0.85231,0.03409\O,
 2.23681,-0.85231,-0.03408\C,3.65363,-0.95716,0.17614\H,3.85227,-2.0195
 6,0.28369\H,4.19099,-0.55361,-0.68132\H,3.94202,-0.42377,1.08089\C,-3.
 65362,-0.95717,-0.17615\H,-4.19099,-0.55375,0.68136\H,-3.94203,-0.4236

 Normal termination of Gaussian 09 at Thu Feb 24 23:24:06 2022.
