 Gaussian 09, Revision D.01,
 Gaussian 09:  ES64L-G09RevD.01 24-Apr-2013

 ------------------------------------------------
 #n wB97XD/Def2TZVP scrf(smd,solvent=toluene) opt
 ------------------------------------------------

 --------------------------------
 dmad cycloaddition toluene - opt
 --------------------------------
 Symbolic Z-matrix:
 Charge =  0 Multiplicity = 1

 SCF Done:  E(RwB97XD) =  -566.432883353     A.U. after   13 cycles
 SCF Done:  E(RwB97XD) =  -566.432884808     A.U. after    9 cycles
 SCF Done:  E(RwB97XD) =  -566.432883567     A.U. after    9 cycles
 SCF Done:  E(RwB97XD) =  -566.432885309     A.U. after    8 cycles
 SCF Done:  E(RwB97XD) =  -566.432885536     A.U. after    7 cycles
 Optimization completed.
    -- Stationary point found.

                         Standard orientation:
 ---------------------------------------------------------------------
 Center     Atomic      Atomic             Coordinates (Angstroms)
 Number     Number       Type             X           Y           Z
 ---------------------------------------------------------------------
      1          7           0        0.360382    0.310965   -0.495734
      2          7           0       -0.360385    0.310981    0.495743
      3          6           0        1.764492    0.364884   -0.173627
      4          6           0       -1.764496    0.364888    0.173636
      5          8           0       -2.358385    1.399035    0.141044
      6          8           0        2.358378    1.399034   -0.141056
      7          8           0       -2.236803   -0.852309    0.034091
      8          8           0        2.236806   -0.852309   -0.034075
      9          6           0        3.653626   -0.957159    0.176139
     10          1           0        3.852274   -2.019556    0.283695
     11          1           0        4.190985   -0.553606   -0.681321
     12          1           0        3.942023   -0.423772    1.080895
     13          6           0       -3.653618   -0.957167   -0.176152
     14          1           0       -4.190990   -0.553751    0.681364
     15          1           0       -3.942027   -0.423663   -1.080836
     16          1           0       -3.852237   -2.019554   -0.283860
 ---------------------------------------------------------------------

 The electronic state is 1-A.
 Alpha  occ. eigenvalues --  -19.32508 -19.32508 -19.26064 -19.26064 -14.53348
 Alpha  occ. eigenvalues --  -14.53286 -10.45586 -10.45585 -10.34734 -10.34733
 Alpha  occ. eigenvalues --   -1.26123  -1.24796  -1.18020  -1.15602  -1.15172
 Alpha  occ. eigenvalues --   -0.91773  -0.85242  -0.81107  -0.71186  -0.67115
 Alpha  occ. eigenvalues --   -0.66162  -0.62783  -0.60199  -0.59642  -0.59020
 Alpha  occ. eigenvalues --   -0.56911  -0.53966  -0.53931  -0.51845  -0.49415
 Alpha  occ. eigenvalues --   -0.48775  -0.47036  -0.46858  -0.41594  -0.41532
 Alpha  occ. eigenvalues --   -0.41238  -0.41110  -0.34568
 Alpha virt. eigenvalues --   -0.01270   0.07032   0.07769   0.12808   0.12906
 Alpha virt. eigenvalues --    0.15224   0.15556   0.18457   0.18587   0.19982
 Alpha virt. eigenvalues --    0.20029   0.22473   0.23993   0.25603   0.26981

 Mulliken charges:
               1
     1  N   -0.087951
     2  N   -0.087952
     3  C    0.415914
     4  C    0.415914
     5  O   -0.330410
     6  O   -0.330410
     7  O   -0.253382
     8  O   -0.253381
     9  C   -0.206885
    10  H    0.156103
    11  H    0.152787
    12  H    0.153823
    13  C   -0.206885
    14  H    0.152788
    15  H    0.153823
    16  H    0.156103
 Sum of Mulliken charges =   0.00000

 Dipole moment (field-independent basis, Debye):
    X=              0.0000    Y=             -4.7456    Z=              0.0000  Tot=              4.7456
 Quadrupole moment (field-independent basis, Debye-Ang):
   XX=            -35.6254   YY=            -62.4557   ZZ=            -56.1800
   XY=              0.0001   XZ=              1.9114   YZ=              0.0001

 1\1\GINC-D10S4B1\FOpt\RwB97XD\def2TZVP\C4H6N2O4\PMMASS\23-Feb-2022\0\\
 #n wB97XD/Def2TZVP scrf(smd,solvent=toluene) opt\\dmad cycloaddition t
 oluene - opt\\0,1\N,0.3601082778,0.3103344081,-0.495905587\N,-0.360113
 6079,0.3103053624,0.4959675935\C,1.7643949855,0.3642468994,-0.17456870
 1\C,-1.7644012708,0.3642187335,0.174634784\O,-2.3583135953,1.398364605
 6,0.1424127802\O,2.358294019,1.398398048,-0.1422813358\O,-2.2367789579
 ,-0.8529745522,0.0352982648\O,2.2367915282,-0.8529497305,-0.0353273284
 \C,3.6537277325,-0.957801597,0.1741030271\H,3.8524396596,-2.0202020632

 Normal termination of Gaussian 09 at Wed Feb 23 16:52:08 2022.
