 Gaussian 09, Revision D.01,
 Gaussian 09:  ES64L-G09RevD.01 24-Apr-2013

 ------------------------------------------------
 #n wB97XD/Def2TZVP scrf(smd,solvent=toluene) opt
 ------------------------------------------------

 --------------------------------------
 Cycloaddition product in toluene - opt
 --------------------------------------
 Symbolic Z-matrix:
 Charge =  0 Multiplicity = 3

 SCF Done:  E(UwB97XD) =  -837.921203246     A.U. after   18 cycles
 SCF Done:  E(UwB97XD) =  -837.921190988     A.U. after   10 cycles
 SCF Done:  E(UwB97XD) =  -837.921201759     A.U. after   10 cycles
 SCF Done:  E(UwB97XD) =  -837.921200647     A.U. after   10 cycles
 SCF Done:  E(UwB97XD) =  -837.921199526     A.U. after   12 cycles
 SCF Done:  E(UwB97XD) =  -837.921197432     A.U. after   12 cycles
 SCF Done:  E(UwB97XD) =  -837.921197230     A.U. after    9 cycles
 SCF Done:  E(UwB97XD) =  -837.921197436     A.U. after    9 cycles
 SCF Done:  E(UwB97XD) =  -837.921197797     A.U. after    8 cycles
 Optimization completed.
    -- Stationary point found.

                         Standard orientation:
 ---------------------------------------------------------------------
 Center     Atomic      Atomic             Coordinates (Angstroms)
 Number     Number       Type             X           Y           Z
 ---------------------------------------------------------------------
      1          6           0        0.336411    0.690165   -0.574295
      2          6           0        0.888754    1.861964    0.293135
      3          6           0       -1.385636    1.973247    0.575455
      4          6           0       -1.088492    1.196642   -0.669511
      5          1           0        0.822961    0.652121   -1.544984
      6          1           0       -1.849654    0.707271   -1.252468
      7          6           0       -0.142494    1.914335    1.446061
      8          1           0       -0.013015    2.808902    2.055726
      9          1           0       -0.118959    1.036177    2.094260
     10          6           0        0.450123    3.022892   -0.549401
     11          1           0        0.913322    3.997325   -0.591516
     12          6           0       -0.974159    2.718088   -0.700415
     13          1           0       -1.679310    3.310829   -1.261085
     14          1           0        1.935523    1.793882    0.565215
     15          1           0       -2.386001    2.037713    0.974360
     16          7           0       -0.332758   -1.242635    0.852936
     17          7           0        0.535653   -0.628067    0.073131
     18          6           0       -1.667363   -1.315940    0.493984
     19          6           0        1.846089   -1.150598    0.175486
     20          8           0        2.134457   -2.119831    0.812745
     21          8           0       -2.566862   -1.212619    1.285675
     22          8           0        2.686242   -0.430576   -0.562707
     23          8           0       -1.820308   -1.670467   -0.790899
     24          6           0       -3.165640   -1.873227   -1.214873
     25          1           0       -3.109125   -2.101265   -2.276755
     26          1           0       -3.620154   -2.705580   -0.677209
     27          1           0       -3.764082   -0.975322   -1.054560
     28          6           0        4.041740   -0.881113   -0.565727
     29          1           0        4.579843   -0.183168   -1.201862
     30          1           0        4.453613   -0.865010    0.442900
     31          1           0        4.110544   -1.889741   -0.972398
 ---------------------------------------------------------------------

 The electronic state is 3-A.
 Alpha  occ. eigenvalues --  -19.31251 -19.29841 -19.24084 -19.22913 -14.53853
 Alpha  occ. eigenvalues --  -14.48209 -10.44814 -10.43314 -10.34356 -10.34143
 Alpha  occ. eigenvalues --  -10.33385 -10.30259 -10.30103 -10.29995 -10.29942
 Alpha  occ. eigenvalues --  -10.29520 -10.28525  -1.24376  -1.22379  -1.15364
 Alpha  occ. eigenvalues --   -1.13010  -1.12347  -1.04140  -0.94910  -0.86717
 Alpha  occ. eigenvalues --   -0.84292  -0.83779  -0.81716  -0.80108  -0.71097
 Alpha  occ. eigenvalues --   -0.69867  -0.66321  -0.65586  -0.64914  -0.64380
 Alpha  occ. eigenvalues --   -0.64192  -0.61042  -0.60246  -0.58022  -0.57613
 Alpha  occ. eigenvalues --   -0.57362  -0.55913  -0.53291  -0.52638  -0.52225
 Alpha  occ. eigenvalues --   -0.51757  -0.50089  -0.48822  -0.47205  -0.46864
 Alpha  occ. eigenvalues --   -0.45994  -0.45181  -0.45062  -0.43762  -0.43115
 Alpha  occ. eigenvalues --   -0.40531  -0.39959  -0.39391  -0.38552  -0.38039
 Alpha  occ. eigenvalues --   -0.37436  -0.36395  -0.30460  -0.26795
 Alpha virt. eigenvalues --    0.09398   0.10451   0.11124   0.12247   0.14196
 Alpha virt. eigenvalues --    0.14757   0.15772   0.16089   0.16342   0.16857
 Alpha virt. eigenvalues --    0.17212   0.18076   0.18631   0.19098   0.19584

  Beta  occ. eigenvalues --  -19.31209 -19.29770 -19.23975 -19.22813 -14.53341
  Beta  occ. eigenvalues --  -14.47037 -10.44825 -10.43333 -10.34309 -10.34145
  Beta  occ. eigenvalues --  -10.33377 -10.30173 -10.30128 -10.30077 -10.29778
  Beta  occ. eigenvalues --  -10.28442 -10.28410  -1.24055  -1.22056  -1.14597
  Beta  occ. eigenvalues --   -1.12331  -1.11768  -1.03458  -0.93089  -0.86148
  Beta  occ. eigenvalues --   -0.83927  -0.83397  -0.80180  -0.79362  -0.70443
  Beta  occ. eigenvalues --   -0.69209  -0.65899  -0.65163  -0.64529  -0.64039
  Beta  occ. eigenvalues --   -0.63189  -0.60138  -0.59514  -0.57539  -0.57236
  Beta  occ. eigenvalues --   -0.57021  -0.55319  -0.53074  -0.52284  -0.51332
  Beta  occ. eigenvalues --   -0.51039  -0.49246  -0.48130  -0.46670  -0.45845
  Beta  occ. eigenvalues --   -0.45618  -0.44963  -0.43964  -0.43040  -0.41089
  Beta  occ. eigenvalues --   -0.39814  -0.39310  -0.38937  -0.37769  -0.37289
  Beta  occ. eigenvalues --   -0.36708  -0.35008
  Beta virt. eigenvalues --   -0.03677   0.01233   0.10104   0.10853   0.11960
  Beta virt. eigenvalues --    0.12493   0.14327   0.14844   0.15880   0.16132
  Beta virt. eigenvalues --    0.16556   0.16913   0.17452   0.18259   0.18780

 Mulliken charges and spin densities:
               1          2
     1  C    0.049518   0.028933
     2  C   -0.081815  -0.045996
     3  C   -0.126431   0.094922
     4  C   -0.203916   0.039517
     5  H    0.122480   0.010528
     6  H    0.145099  -0.001034
     7  C   -0.167655   0.038658
     8  H    0.116699   0.004575
     9  H    0.141790   0.000790
    10  C   -0.314843   0.933436
    11  H    0.149018  -0.023992
    12  C   -0.036494  -0.053903
    13  H    0.137462   0.000160
    14  H    0.133371  -0.000551
    15  H    0.135299   0.000874
    16  N   -0.230986   0.613274
    17  N    0.053291   0.218016
    18  C    0.386523   0.002199
    19  C    0.435108   0.012183
    20  O   -0.346496   0.047858
    21  O   -0.371875   0.039099
    22  O   -0.292784   0.015359
    23  O   -0.287012   0.018947
    24  C   -0.211221   0.003556
    25  H    0.146617   0.001443
    26  H    0.152519   0.000511
    27  H    0.137404   0.000196
    28  C   -0.216837  -0.001138
    29  H    0.147829   0.000030
    30  H    0.148572   0.000715
    31  H    0.149767   0.000834
 Sum of Mulliken charges =   0.00000   2.00000

 Dipole moment (field-independent basis, Debye):
    X=              1.6216    Y=              3.8468    Z=             -4.5328  Tot=              6.1622
 Quadrupole moment (field-independent basis, Debye-Ang):
   XX=            -82.8101   YY=           -100.3505   ZZ=           -101.6391
   XY=              1.9935   XZ=              5.7949   YZ=              9.9257

 Normal termination of Gaussian 09 at Wed Feb 23 18:35:29 2022.
