 Gaussian 09, Revision D.01,
 Gaussian 09:  ES64L-G09RevD.01 24-Apr-2013

 -------------------------------------------------
 #n wB97XD/Def2TZVP scrf(smd,solvent=toluene) freq
 -------------------------------------------------

 ----------------------------------
 clasisen product in toluene - freq
 ----------------------------------
 Symbolic Z-matrix:
 Charge =  0 Multiplicity = 3

                         Standard orientation:
 ---------------------------------------------------------------------
 Center     Atomic      Atomic             Coordinates (Angstroms)
 Number     Number       Type             X           Y           Z
 ---------------------------------------------------------------------
      1          6           0        0.336410    0.690171   -0.574290
      2          6           0        0.888749    1.861961    0.293130
      3          6           0       -1.385641    1.973250    0.575460
      4          6           0       -1.088490    1.196640   -0.669510
      5          1           0        0.822960    0.652121   -1.544980
      6          1           0       -1.849650    0.707270   -1.252470
      7          6           0       -0.142491    1.914330    1.446060
      8          1           0       -0.013021    2.808901    2.055730
      9          1           0       -0.118960    1.036180    2.094260
     10          6           0        0.450119    3.022891   -0.549400
     11          1           0        0.913318    3.997331   -0.591520
     12          6           0       -0.974161    2.718090   -0.700420
     13          1           0       -1.679311    3.310830   -1.261090
     14          1           0        1.935519    1.793882    0.565220
     15          1           0       -2.386001    2.037709    0.974360
     16          7           0       -0.332759   -1.242630    0.852940
     17          7           0        0.535651   -0.628069    0.073130
     18          6           0       -1.667359   -1.315940    0.493980
     19          6           0        1.846091   -1.150598    0.175490
     20          8           0        2.134462   -2.119828    0.812750
     21          8           0       -2.566859   -1.212621    1.285670
     22          8           0        2.686241   -0.430578   -0.562710
     23          8           0       -1.820309   -1.670470   -0.790900
     24          6           0       -3.165638   -1.873231   -1.214870
     25          1           0       -3.109128   -2.101271   -2.276760
     26          1           0       -3.620148   -2.705582   -0.677210
     27          1           0       -3.764079   -0.975322   -1.054560
     28          6           0        4.041741   -0.881107   -0.565730
     29          1           0        4.579841   -0.183167   -1.201860
     30          1           0        4.453611   -0.865007    0.442900
     31          1           0        4.110542   -1.889737   -0.972400
 ---------------------------------------------------------------------

 SCF Done:  E(UwB97XD) =  -837.921197796     A.U. after   18 cycles

 The electronic state is 3-A.
 Alpha  occ. eigenvalues --  -19.31251 -19.29841 -19.24084 -19.22913 -14.53852
 Alpha  occ. eigenvalues --  -14.48209 -10.44814 -10.43314 -10.34356 -10.34143
 Alpha  occ. eigenvalues --  -10.33385 -10.30259 -10.30103 -10.29995 -10.29942
 Alpha  occ. eigenvalues --  -10.29520 -10.28525  -1.24376  -1.22379  -1.15364
 Alpha  occ. eigenvalues --   -1.13010  -1.12347  -1.04140  -0.94910  -0.86717
 Alpha  occ. eigenvalues --   -0.84292  -0.83779  -0.81716  -0.80108  -0.71097
 Alpha  occ. eigenvalues --   -0.69867  -0.66321  -0.65586  -0.64914  -0.64380
 Alpha  occ. eigenvalues --   -0.64192  -0.61042  -0.60246  -0.58022  -0.57613
 Alpha  occ. eigenvalues --   -0.57362  -0.55913  -0.53291  -0.52638  -0.52225
 Alpha  occ. eigenvalues --   -0.51757  -0.50089  -0.48823  -0.47205  -0.46864
 Alpha  occ. eigenvalues --   -0.45994  -0.45181  -0.45062  -0.43762  -0.43115
 Alpha  occ. eigenvalues --   -0.40531  -0.39959  -0.39391  -0.38552  -0.38039
 Alpha  occ. eigenvalues --   -0.37436  -0.36395  -0.30460  -0.26795
 Alpha virt. eigenvalues --    0.09398   0.10451   0.11124   0.12247   0.14196
 Alpha virt. eigenvalues --    0.14757   0.15772   0.16089   0.16342   0.16857
 Alpha virt. eigenvalues --    0.17212   0.18076   0.18631   0.19098   0.19584

  Beta  occ. eigenvalues --  -19.31209 -19.29770 -19.23975 -19.22813 -14.53341
  Beta  occ. eigenvalues --  -14.47037 -10.44825 -10.43333 -10.34309 -10.34145
  Beta  occ. eigenvalues --  -10.33377 -10.30173 -10.30128 -10.30077 -10.29778
  Beta  occ. eigenvalues --  -10.28442 -10.28410  -1.24055  -1.22056  -1.14597
  Beta  occ. eigenvalues --   -1.12331  -1.11768  -1.03458  -0.93089  -0.86148
  Beta  occ. eigenvalues --   -0.83927  -0.83397  -0.80180  -0.79362  -0.70443
  Beta  occ. eigenvalues --   -0.69209  -0.65899  -0.65163  -0.64529  -0.64039
  Beta  occ. eigenvalues --   -0.63189  -0.60138  -0.59514  -0.57540  -0.57236
  Beta  occ. eigenvalues --   -0.57021  -0.55319  -0.53074  -0.52284  -0.51331
  Beta  occ. eigenvalues --   -0.51039  -0.49246  -0.48130  -0.46670  -0.45845
  Beta  occ. eigenvalues --   -0.45618  -0.44963  -0.43964  -0.43040  -0.41090
  Beta  occ. eigenvalues --   -0.39814  -0.39310  -0.38937  -0.37769  -0.37288
  Beta  occ. eigenvalues --   -0.36708  -0.35008
  Beta virt. eigenvalues --   -0.03677   0.01233   0.10104   0.10853   0.11960
  Beta virt. eigenvalues --    0.12493   0.14327   0.14844   0.15880   0.16132
  Beta virt. eigenvalues --    0.16556   0.16913   0.17452   0.18259   0.18780

 Mulliken charges and spin densities:
               1          2
     1  C    0.049524   0.028935
     2  C   -0.081812  -0.045996
     3  C   -0.126433   0.094926
     4  C   -0.203918   0.039518
     5  H    0.122478   0.010527
     6  H    0.145099  -0.001034
     7  C   -0.167657   0.038658
     8  H    0.116698   0.004575
     9  H    0.141791   0.000790
    10  C   -0.314844   0.933434
    11  H    0.149018  -0.023993
    12  C   -0.036496  -0.053905
    13  H    0.137464   0.000160
    14  H    0.133370  -0.000551
    15  H    0.135300   0.000874
    16  N   -0.230987   0.613273
    17  N    0.053291   0.218017
    18  C    0.386522   0.002197
    19  C    0.435105   0.012184
    20  O   -0.346493   0.047855
    21  O   -0.371876   0.039103
    22  O   -0.292784   0.015359
    23  O   -0.287011   0.018947
    24  C   -0.211221   0.003555
    25  H    0.146617   0.001443
    26  H    0.152520   0.000511
    27  H    0.137404   0.000196
    28  C   -0.216836  -0.001138
    29  H    0.147830   0.000031
    30  H    0.148572   0.000715
    31  H    0.149766   0.000834
 Sum of Mulliken charges =   0.00000   2.00000

 Dipole moment (field-independent basis, Debye):
    X=              1.6216    Y=              3.8468    Z=             -4.5328  Tot=              6.1622
 Quadrupole moment (field-independent basis, Debye-Ang):
   XX=            -82.8101   YY=           -100.3504   ZZ=           -101.6391
   XY=              1.9935   XZ=              5.7948   YZ=              9.9257

  Exact polarizability: 195.354   6.625 164.444  -5.381  -7.143 143.600
 Approx polarizability: 169.876   3.085 154.649  -8.043  -8.990 153.860

                      1                      2                      3
                      A                      A                      A
 Frequencies --     23.4916                62.2946                65.1659
 Red. masses --      4.1926                 3.7055                 4.8915
 Frc consts  --      0.0014                 0.0085                 0.0122
 IR Inten    --      0.9457                 1.4037                 2.2943

                      4                      5                      6
                      A                      A                      A
 Frequencies --     86.4835               100.9008               121.9697
 Red. masses --      3.4678                 2.8557                 3.8441
 Frc consts  --      0.0153                 0.0171                 0.0337
 IR Inten    --      4.2312                 1.2944                 0.8759

                      7                      8                      9
                      A                      A                      A
 Frequencies --    132.1848               145.0625               157.7136
 Red. masses --      2.3362                 1.4097                 1.6300
 Frc consts  --      0.0241                 0.0175                 0.0239
 IR Inten    --      1.3887                 1.5993                 1.0543

                     10                     11                     12
                      A                      A                      A
 Frequencies --    183.9658               208.8015               237.2341
 Red. masses --      3.8277                 4.9070                 3.8755
 Frc consts  --      0.0763                 0.1260                 0.1285
 IR Inten    --      3.9636                 1.4023                 4.6555

                     13                     14                     15
                      A                      A                      A
 Frequencies --    290.7598               307.0001               319.8926
 Red. masses --      1.2193                 3.8223                 5.2677
 Frc consts  --      0.0607                 0.2123                 0.3176
 IR Inten    --     27.1777                15.9542                14.9257

                     16                     17                     18
                      A                      A                      A
 Frequencies --    343.3280               357.6809               418.4716
 Red. masses --      5.8618                 6.2847                 6.2790
 Frc consts  --      0.4071                 0.4737                 0.6479
 IR Inten    --     16.8067                 0.9135                 0.5060

                     19                     20                     21
                      A                      A                      A
 Frequencies --    462.8714               473.5049               600.2317
 Red. masses --      6.8806                 2.3659                 5.4389
 Frc consts  --      0.8686                 0.3125                 1.1545
 IR Inten    --      4.9626                 1.4309                20.1996

                     22                     23                     24
                      A                      A                      A
 Frequencies --    612.2220               674.7283               689.7273
 Red. masses --      6.4223                 6.4730                 5.1924
 Frc consts  --      1.4183                 1.7363                 1.4554
 IR Inten    --     14.2771                 1.0524                 0.4135

                     25                     26                     27
                      A                      A                      A
 Frequencies --    698.0222               769.0511               783.6787
 Red. masses --      6.1435                 6.4797                 7.1946
 Frc consts  --      1.7636                 2.2580                 2.6034
 IR Inten    --      2.6846                 6.2296                14.8727

                     28                     29                     30
                      A                      A                      A
 Frequencies --    797.5022               804.4012               825.3246
 Red. masses --      2.3840                 3.6855                 6.1279
 Frc consts  --      0.8933                 1.4050                 2.4593
 IR Inten    --     35.0225                 7.3765                59.6191

                     31                     32                     33
                      A                      A                      A
 Frequencies --    845.4837               882.3546               897.4897
 Red. masses --      2.0550                 4.4115                 2.6155
 Frc consts  --      0.8655                 2.0236                 1.2413
 IR Inten    --     14.9089                41.8906                26.3161

                     34                     35                     36
                      A                      A                      A
 Frequencies --    912.0410               929.2325               941.1358
 Red. masses --      2.1377                 2.5252                 3.2086
 Frc consts  --      1.0477                 1.2847                 1.6745
 IR Inten    --      0.9978                 0.4937                 4.9952

                     37                     38                     39
                      A                      A                      A
 Frequencies --    962.1980               987.5786               999.6717
 Red. masses --      1.9852                 1.9965                 1.4977
 Frc consts  --      1.0829                 1.1472                 0.8818
 IR Inten    --      1.0664                11.2950                 0.1822

                     40                     41                     42
                      A                      A                      A
 Frequencies --   1013.4429              1036.5627              1052.4581
 Red. masses --      2.7567                 2.5317                 2.0510
 Frc consts  --      1.6682                 1.6027                 1.3385
 IR Inten    --      0.2067                26.6192                13.6600

                     43                     44                     45
                      A                      A                      A
 Frequencies --   1058.0630              1072.9539              1095.8588
 Red. masses --      1.6999                 1.3634                 1.5164
 Frc consts  --      1.1212                 0.9248                 1.0729
 IR Inten    --      1.7511                 8.1542                 1.1183

                     46                     47                     48
                      A                      A                      A
 Frequencies --   1113.1192              1155.3796              1162.5409
 Red. masses --      4.7764                 3.0458                 1.2961
 Frc consts  --      3.4869                 2.3955                 1.0321
 IR Inten    --    101.1661                22.0517                 3.2317

                     49                     50                     51
                      A                      A                      A
 Frequencies --   1180.1888              1189.2777              1194.1636
 Red. masses --      1.2877                 1.2840                 1.7183
 Frc consts  --      1.0568                 1.0700                 1.4437
 IR Inten    --      2.0750                 1.3591                 0.1151

                     52                     53                     54
                      A                      A                      A
 Frequencies --   1221.1869              1227.1587              1230.0653
 Red. masses --      1.5910                 3.0716                 2.4404
 Frc consts  --      1.3979                 2.7253                 2.1755
 IR Inten    --      2.2524               525.7310               293.7164

                     55                     56                     57
                      A                      A                      A
 Frequencies --   1257.4401              1272.1500              1275.5142
 Red. masses --      1.5371                 1.4920                 1.6555
 Frc consts  --      1.4319                 1.4226                 1.5869
 IR Inten    --      3.8802                42.2166                25.8403

                     58                     59                     60
                      A                      A                      A
 Frequencies --   1298.2536              1308.2821              1334.8226
 Red. masses --      3.6302                 2.3874                 1.8306
 Frc consts  --      3.6049                 2.4076                 1.9217
 IR Inten    --    742.7249                52.4303                95.0894

                     61                     62                     63
                      A                      A                      A
 Frequencies --   1348.0033              1375.7093              1386.4515
 Red. masses --      1.9686                 1.7720                 2.4232
 Frc consts  --      2.1076                 1.9759                 2.7444
 IR Inten    --      8.5888                37.8190                 5.0897

                     64                     65                     66
                      A                      A                      A
 Frequencies --   1469.1621              1482.1048              1486.6882
 Red. masses --      1.5670                 1.1657                 1.0545
 Frc consts  --      1.9928                 1.5087                 1.3732
 IR Inten    --     17.0452                57.0655                11.6768

                     67                     68                     69
                      A                      A                      A
 Frequencies --   1488.2006              1490.2376              1496.4604
 Red. masses --      1.0418                 1.1779                 1.1777
 Frc consts  --      1.3594                 1.5412                 1.5539
 IR Inten    --     13.1507                43.3455                24.4456

                     70                     71                     72
                      A                      A                      A
 Frequencies --   1498.8049              1503.1661              1802.5320
 Red. masses --      1.7626                 1.1160                12.0569
 Frc consts  --      2.3329                 1.4857                23.0809
 IR Inten    --     17.7667                 3.2610               480.7794

                     73                     74                     75
                      A                      A                      A
 Frequencies --   1849.4008              3071.4317              3081.5462
 Red. masses --     12.1016                 1.0309                 1.0308
 Frc consts  --     24.3867                 5.7301                 5.7673
 IR Inten    --    450.4416                35.9154                33.8315

                     76                     77                     78
                      A                      A                      A
 Frequencies --   3083.7509              3138.0985              3149.6234
 Red. masses --      1.0603                 1.1060                 1.1073
 Frc consts  --      5.9408                 6.4172                 6.4718
 IR Inten    --     28.7826                21.7425                21.7671

                     79                     80                     81
                      A                      A                      A
 Frequencies --   3159.1108              3164.5435              3182.9890
 Red. masses --      1.0868                 1.1079                 1.1060
 Frc consts  --      6.3905                 6.5371                 6.6018
 IR Inten    --      5.4869                14.4750                12.3209

                     82                     83                     84
                      A                      A                      A
 Frequencies --   3193.6637              3201.6879              3242.3819
 Red. masses --      1.1064                 1.0897                 1.0924
 Frc consts  --      6.6486                 6.5816                 6.7667
 IR Inten    --     10.3965                14.2364                 1.5064

                     85                     86                     87
                      A                      A                      A
 Frequencies --   3246.5155              3257.3795              3275.6684
 Red. masses --      1.0910                 1.0969                 1.0942
 Frc consts  --      6.7749                 6.8574                 6.9173
 IR Inten    --     10.0279                 8.8431                 3.6339

 - Thermochemistry -
 -------------------
 Temperature   298.150 Kelvin.  Pressure   1.00000 Atm.
 Atom     1 has atomic number  6 and mass  12.00000

 Molecular mass:   238.09536 amu.
 Principal axes and moments of inertia in atomic units:
                           1         2         3
     Eigenvalues --  2979.946123852.463735682.35915
           X            0.99987   0.01283   0.00937
           Y           -0.01304   0.99966   0.02267
           Z           -0.00908  -0.02279   0.99970
 This molecule is an asymmetric top.
 Rotational symmetry number  1.
 Warning -- assumption of classical behavior for rotation
           may cause significant error
 Rotational temperatures (Kelvin)      0.02907     0.02248     0.01524
 Rotational constants (GHZ):           0.60563     0.46846     0.31760
 Zero-point vibrational energy     651875.3 (Joules/Mol)
                                  155.80195 (Kcal/Mol)
 Warning -- explicit consideration of  22 degrees of freedom as
           vibrations may cause significant error
 Vibrational temperatures:     33.80    89.63    93.76   124.43   145.17
          (Kelvin)            175.49   190.18   208.71   226.91   264.69
                              300.42   341.33   418.34   441.70   460.25
                              493.97   514.62   602.09   665.97   681.27
                              863.60   880.85   970.78   992.36  1004.30
                             1106.49  1127.54  1147.43  1157.35  1187.46
                             1216.46  1269.51  1291.29  1312.22  1336.96
                             1354.08  1384.39  1420.90  1438.30  1458.12
                             1491.38  1514.25  1522.31  1543.74  1576.69
                             1601.53  1662.33  1672.63  1698.03  1711.10
                             1718.13  1757.01  1765.61  1769.79  1809.17
                             1830.34  1835.18  1867.90  1882.32  1920.51
                             1939.47  1979.34  1994.79  2113.79  2132.42
                             2139.01  2141.19  2144.12  2153.07  2156.44
                             2162.72  2593.44  2660.87  4419.10  4433.65
                             4436.82  4515.02  4531.60  4545.25  4553.07
                             4579.61  4594.96  4606.51  4665.06  4671.01
                             4686.64  4712.95

 Zero-point correction=                           0.248286 (Hartree/Particle)
 Thermal correction to Energy=                    0.264143
 Thermal correction to Enthalpy=                  0.265087
 Thermal correction to Gibbs Free Energy=         0.202960
 Sum of electronic and zero-point Energies=           -837.672912
 Sum of electronic and thermal Energies=              -837.657055
 Sum of electronic and thermal Enthalpies=            -837.656110
 Sum of electronic and thermal Free Energies=         -837.718238

                     E (Thermal)             CV                S
                      KCal/Mol        Cal/Mol-Kelvin    Cal/Mol-Kelvin
 Total                  165.752             59.014            130.758
 Electronic               0.000              0.000              2.183
 Translational            0.889              2.981             42.304
 Rotational               0.889              2.981             32.545
 Vibrational            163.975             53.052             53.726
 Vibration     1          0.593              1.985              6.315
 Vibration     2          0.597              1.972              4.383
 Vibration     3          0.597              1.971              4.294
 Vibration     4          0.601              1.959              3.738
 Vibration     5          0.604              1.948              3.437
 Vibration     6          0.609              1.931              3.069
 Vibration     7          0.612              1.921              2.914
 Vibration     8          0.616              1.908              2.736
 Vibration     9          0.621              1.894              2.577
 Vibration    10          0.631              1.862              2.288
 Vibration    11          0.642              1.827              2.054
 Vibration    12          0.656              1.784              1.824
 Vibration    13          0.687              1.691              1.470
 Vibration    14          0.697              1.660              1.378
 Vibration    15          0.706              1.635              1.311
 Vibration    16          0.722              1.589              1.197
 Vibration    17          0.733              1.559              1.132
 Vibration    18          0.781              1.430              0.897
 Vibration    19          0.821              1.332              0.758
 Vibration    20          0.830              1.309              0.728
 Vibration    21          0.958              1.031              0.449
 Vibration    22          0.971              1.006              0.429

 Normal termination of Gaussian 09 at Fri Feb 25 02:28:17 2022.
