 Gaussian 09, Revision D.01,
 Gaussian 09:  ES64L-G09RevD.01 24-Apr-2013

 ------------------------------------------------
 #n wB97XD/Def2TZVP scrf(smd,solvent=toluene) opt
 ------------------------------------------------

 -----------------------------------------
 Quadricyclane cycloaddition toluene - opt
 -----------------------------------------
 Symbolic Z-matrix:
 Charge =  0 Multiplicity = 1

 SCF Done:  E(RwB97XD) =  -271.471300460     A.U. after   11 cycles

 The electronic state is 1-A.
 Alpha  occ. eigenvalues --  -10.28337 -10.28332 -10.28301 -10.28294 -10.28290
 Alpha  occ. eigenvalues --  -10.28275 -10.27267  -1.04644  -0.88018  -0.82935
 Alpha  occ. eigenvalues --   -0.72957  -0.65761  -0.64132  -0.62644  -0.60636
 Alpha  occ. eigenvalues --   -0.52183  -0.51767  -0.51460  -0.47520  -0.42963
 Alpha  occ. eigenvalues --   -0.42106  -0.39194  -0.35821  -0.34744  -0.29975
 Alpha virt. eigenvalues --    0.12919   0.14215   0.15597   0.16155   0.17934
 Alpha virt. eigenvalues --    0.18029   0.18503   0.18523   0.20178   0.20873
 Alpha virt. eigenvalues --    0.21734   0.23782   0.24722   0.25606   0.25775

 Mulliken charges:
               1
     1  C   -0.123829
     2  C   -0.189272
     3  C   -0.189273
     4  C   -0.123826
     5  H    0.122743
     6  H    0.122743
     7  C   -0.048319
     8  H    0.094586
     9  H    0.094586
    10  C   -0.123826
    11  H    0.122742
    12  C   -0.123829
    13  H    0.122741
    14  H    0.121017
    15  H    0.121017
 Sum of Mulliken charges =   0.00000

 Dipole moment (field-independent basis, Debye):
    X=              0.0000    Y=              0.0007    Z=              0.0000  Tot=              0.0007
 Quadrupole moment (field-independent basis, Debye-Ang):
   XX=            -38.9341   YY=            -41.6165   ZZ=            -41.7420
   XY=              0.0000   XZ=              0.0000   YZ=              0.0000

 Optimization completed.
    -- Stationary point found.

                         Standard orientation:
 ---------------------------------------------------------------------
 Center     Atomic      Atomic             Coordinates (Angstroms)
 Number     Number       Type             X           Y           Z
 ---------------------------------------------------------------------
      1          6           0        0.770515   -0.704497    0.754440
      2          6           0        1.144894    0.547254    0.000000
      3          6           0       -1.144886    0.547278    0.000000
      4          6           0       -0.770535   -0.704481    0.754440
      5          1           0        1.421132   -1.225623    1.439570
      6          1           0       -1.421158   -1.225595    1.439560
      7          6           0        0.000018    1.529411    0.000000
      8          1           0        0.000023    2.164441   -0.889010
      9          1           0        0.000023    2.164441    0.889010
     10          6           0        0.770515   -0.704497   -0.754440
     11          1           0        1.421132   -1.225623   -1.439560
     12          6           0       -0.770525   -0.704481   -0.754440
     13          1           0       -1.421148   -1.225595   -1.439560
     14          1           0        2.176992    0.868799    0.000000
     15          1           0       -2.176968    0.868842    0.000000
 ---------------------------------------------------------------------

 Normal termination of Gaussian 09 at Wed Feb 23 16:45:16 2022.
