 Gaussian 09, Revision D.01,
 Gaussian 09:  ES64L-G09RevD.01 24-Apr-2013

 -------------------------------------------------
 #n wB97XD/Def2TZVP scrf(smd,solvent=toluene) freq
 -------------------------------------------------

 ------------------------------------------
 quadricyclane cycloaddition toluene - freq
 ------------------------------------------
 Symbolic Z-matrix:
 Charge =  0 Multiplicity = 1

                         Standard orientation:
 ---------------------------------------------------------------------
 Center     Atomic      Atomic             Coordinates (Angstroms)
 Number     Number       Type             X           Y           Z
 ---------------------------------------------------------------------
      1          6           0        0.770541   -0.704468    0.754440
      2          6           0        1.144870    0.547297    0.000000
      3          6           0       -1.144910    0.547233    0.000000
      4          6           0       -0.770499   -0.704511    0.754440
      5          1           0        1.421183   -1.225561    1.439570
      6          1           0       -1.421107   -1.225648    1.439560
      7          6           0       -0.000041    1.529410    0.000000
      8          1           0       -0.000067    2.164440   -0.889010
      9          1           0       -0.000067    2.164440    0.889010
     10          6           0        0.770541   -0.704468   -0.754440
     11          1           0        1.421183   -1.225561   -1.439560
     12          6           0       -0.770499   -0.704511   -0.754440
     13          1           0       -1.421097   -1.225648   -1.439560
     14          1           0        2.176956    0.868890    0.000000
     15          1           0       -2.177004    0.868751    0.000000
 ---------------------------------------------------------------------

 SCF Done:  E(RwB97XD) =  -271.471300457     A.U. after   11 cycles

 The electronic state is 1-A.
 Alpha  occ. eigenvalues --  -10.28337 -10.28332 -10.28301 -10.28294 -10.28290
 Alpha  occ. eigenvalues --  -10.28275 -10.27267  -1.04644  -0.88018  -0.82935
 Alpha  occ. eigenvalues --   -0.72957  -0.65761  -0.64132  -0.62644  -0.60636
 Alpha  occ. eigenvalues --   -0.52183  -0.51767  -0.51460  -0.47520  -0.42963
 Alpha  occ. eigenvalues --   -0.42106  -0.39194  -0.35821  -0.34744  -0.29975
 Alpha virt. eigenvalues --    0.12919   0.14215   0.15597   0.16155   0.17934
 Alpha virt. eigenvalues --    0.18029   0.18503   0.18523   0.20178   0.20873
 Alpha virt. eigenvalues --    0.21734   0.23782   0.24722   0.25606   0.25775

 Mulliken charges:
               1
     1  C   -0.123827
     2  C   -0.189271
     3  C   -0.189275
     4  C   -0.123828
     5  H    0.122743
     6  H    0.122742
     7  C   -0.048319
     8  H    0.094586
     9  H    0.094586
    10  C   -0.123827
    11  H    0.122742
    12  C   -0.123826
    13  H    0.122741
    14  H    0.121016
    15  H    0.121017
 Sum of Mulliken charges =   0.00000

 Dipole moment (field-independent basis, Debye):
    X=              0.0000    Y=              0.0007    Z=              0.0000  Tot=              0.0007
 Quadrupole moment (field-independent basis, Debye-Ang):
   XX=            -38.9341   YY=            -41.6166   ZZ=            -41.7420
   XY=              0.0000   XZ=              0.0000   YZ=              0.0000

  Exact polarizability:  79.392   0.000  82.130   0.000   0.000  74.931
 Approx polarizability:  73.832   0.000  77.987   0.000   0.000  77.413

                      1                      2                      3
                      A                      A                      A
 Frequencies --    378.9159               542.6190               685.6179
 Red. masses --      1.7900                 2.7977                 3.0632
 Frc consts  --      0.1514                 0.4853                 0.8484
 IR Inten    --      1.1900                 0.0000                 0.0002

                      4                      5                      6
                      A                      A                      A
 Frequencies --    714.5367               731.6846               745.6602
 Red. masses --      1.8726                 3.3375                 4.7138
 Frc consts  --      0.5633                 1.0527                 1.5442
 IR Inten    --      1.8906                 0.0000                 0.9839

                      7                      8                      9
                      A                      A                      A
 Frequencies --    788.1889               811.0048               843.8741
 Red. masses --      1.9571                 1.4248                 1.5955
 Frc consts  --      0.7163                 0.5522                 0.6694
 IR Inten    --     64.9809                39.0995                 0.0000

                     10                     11                     12
                      A                      A                      A
 Frequencies --    877.7000               926.6521               927.3118
 Red. masses --      1.9051                 1.9140                 1.4244
 Frc consts  --      0.8647                 0.9683                 0.7216
 IR Inten    --      1.0524                 5.8053                 5.9170

                     13                     14                     15
                      A                      A                      A
 Frequencies --    945.2318               975.7322               989.2990
 Red. masses --      1.7379                 2.4673                 2.5365
 Frc consts  --      0.9148                 1.3840                 1.4627
 IR Inten    --     10.8909                 1.8206                 0.7858

                     16                     17                     18
                      A                      A                      A
 Frequencies --   1015.4822              1024.5995              1036.7846
 Red. masses --      1.6205                 1.4993                 1.2519
 Frc consts  --      0.9846                 0.9273                 0.7929
 IR Inten    --      0.0832                 0.0673                 0.0000

                     19                     20                     21
                      A                      A                      A
 Frequencies --   1048.3631              1063.1236              1082.1352
 Red. masses --      1.1855                 2.3079                 1.7505
 Frc consts  --      0.7677                 1.5369                 1.2077
 IR Inten    --      0.3237                 0.0000                 0.1189

                     22                     23                     24
                      A                      A                      A
 Frequencies --   1110.2235              1201.7967              1228.4037
 Red. masses --      2.2924                 1.2132                 1.3611
 Frc consts  --      1.6648                 1.0324                 1.2101
 IR Inten    --      2.6131                 0.0000                 0.0000

                     25                     26                     27
                      A                      A                      A
 Frequencies --   1250.8464              1289.1386              1302.7657
 Red. masses --      1.4857                 1.8072                 2.8933
 Frc consts  --      1.3695                 1.7695                 2.8932
 IR Inten    --      0.0241                21.9061                 2.9226

                     28                     29                     30
                      A                      A                      A
 Frequencies --   1309.9026              1377.1283              1408.3796
 Red. masses --      2.1127                 2.5957                 2.8334
 Frc consts  --      2.1358                 2.9004                 3.3113
 IR Inten    --      4.3107                 0.5982                 0.0180

                     31                     32                     33
                      A                      A                      A
 Frequencies --   1478.0854              3061.0771              3107.1769
 Red. masses --      1.1228                 1.0585                 1.1063
 Frc consts  --      1.4453                 5.8440                 6.2932
 IR Inten    --      1.7385                59.8748                30.1337

                     34                     35                     36
                      A                      A                      A
 Frequencies --   3213.7346              3216.8865              3234.3637
 Red. masses --      1.0909                 1.0923                 1.0897
 Frc consts  --      6.6385                 6.6601                 6.7163
 IR Inten    --     16.5844                 7.1510                 0.0003

                     37                     38                     39
                      A                      A                      A
 Frequencies --   3243.5278              3244.9103              3254.8918
 Red. masses --      1.0926                 1.0964                 1.1037
 Frc consts  --      6.7725                 6.8016                 6.8895
 IR Inten    --     22.2393                23.8444                 6.5901

 - Thermochemistry -
 -------------------
 Temperature   298.150 Kelvin.  Pressure   1.00000 Atm.
 Atom     1 has atomic number  6 and mass  12.00000

 Molecular mass:    92.06260 amu.
 Principal axes and moments of inertia in atomic units:
                           1         2         3
     Eigenvalues --   404.79124 410.38162 549.00070
           X            1.00000   0.00001   0.00000
           Y           -0.00001   1.00000   0.00000
           Z            0.00000   0.00000   1.00000
 This molecule is an asymmetric top.
 Rotational symmetry number  1.
 Rotational temperatures (Kelvin)      0.21397     0.21106     0.15777
 Rotational constants (GHZ):           4.45845     4.39771     3.28732
 Zero-point vibrational energy     339068.1 (Joules/Mol)
                                   81.03922 (Kcal/Mol)
 Warning -- explicit consideration of   2 degrees of freedom as
           vibrations may cause significant error
 Vibrational temperatures:    545.17   780.71   986.45  1028.06  1052.73
          (Kelvin)           1072.84  1134.03  1166.85  1214.15  1262.81
                             1333.24  1334.19  1359.98  1403.86  1423.38
                             1461.05  1474.17  1491.70  1508.36  1529.60
                             1556.95  1597.36  1729.12  1767.40  1799.69
                             1854.78  1874.39  1884.66  1981.38  2026.34
                             2126.63  4404.20  4470.53  4623.84  4628.38
                             4653.52  4666.71  4668.70  4683.06

 Zero-point correction=                           0.129144 (Hartree/Particle)
 Thermal correction to Energy=                    0.133737
 Thermal correction to Enthalpy=                  0.134682
 Thermal correction to Gibbs Free Energy=         0.101274
 Sum of electronic and zero-point Energies=           -271.342156
 Sum of electronic and thermal Energies=              -271.337563
 Sum of electronic and thermal Enthalpies=            -271.336619
 Sum of electronic and thermal Free Energies=         -271.370027

                     E (Thermal)             CV                S
                      KCal/Mol        Cal/Mol-Kelvin    Cal/Mol-Kelvin
 Total                   83.921             19.949             70.312
 Electronic               0.000              0.000              0.000
 Translational            0.889              2.981             39.472
 Rotational               0.889              2.981             26.014
 Vibrational             82.144             13.987              4.827
 Vibration     1          0.749              1.515              1.043
 Vibration     2          0.898              1.156              0.560

 Optimization completed.
    -- Stationary point found.
 Normal termination of Gaussian 09 at Thu Feb 24 23:21:13 2022.
