 Gaussian 09, Revision D.01,
 Gaussian 09:  ES64L-G09RevD.01 24-Apr-2013

 -------------------------------------------------
 #n wB97XD/Def2TZVP scrf(smd,solvent=toluene) freq
 -------------------------------------------------

 -----------------------
 ts_cyclo toluene - freq
 -----------------------
 Symbolic Z-matrix:
 Charge =  0 Multiplicity = 1

                         Standard orientation:
 ---------------------------------------------------------------------
 Center     Atomic      Atomic             Coordinates (Angstroms)
 Number     Number       Type             X           Y           Z
 ---------------------------------------------------------------------
      1          6           0        0.521480    0.792100   -0.841219
      2          6           0        1.682209    1.389271    0.005991
      3          6           0       -0.219981    2.361740    0.835451
      4          6           0       -0.653471    1.653270   -0.413619
      5          1           0        0.657590    0.459701   -1.857089
      6          1           0       -1.675271    1.480369   -0.706369
      7          6           0        1.056999    1.733491    1.347651
      8          1           0        1.681129    2.434951    1.902501
      9          1           0        0.859310    0.852411    1.955801
     10          6           0        1.330479    2.425551   -0.935019
     11          1           0        1.825219    2.615001   -1.874859
     12          6           0        0.051238    3.018020   -0.484199
     13          1           0       -0.392882    3.923380   -0.861809
     14          1           0        2.633480    0.882482   -0.074979
     15          1           0       -0.975981    2.758950    1.493981
     16          7           0       -0.777689   -0.781780    0.868601
     17          7           0        0.035881   -0.951530   -0.121829
     18          6           0       -2.122589   -0.771221    0.504411
     19          6           0        1.297641   -1.472409    0.275201
     20          8           0        1.592662   -1.889989    1.359201
     21          8           0       -2.993639   -0.551722    1.312341
     22          8           0        2.094001   -1.537688   -0.797099
     23          8           0       -2.379469   -1.061481   -0.784459
     24          6           0       -3.754349   -1.101282   -1.138379
     25          1           0       -3.781309   -1.343402   -2.199269
     26          1           0       -4.284198   -1.866693   -0.569909
     27          1           0       -4.236530   -0.137373   -0.965609
     28          6           0        3.363052   -2.145978   -0.582199
     29          1           0        3.919671   -1.633157    0.203341
     30          1           0        3.245592   -3.194898   -0.308209
     31          1           0        3.892152   -2.066827   -1.529169
 ---------------------------------------------------------------------

 SCF Done:  E(RwB97XD) =  -837.863200736     A.U. after   18 cycles

 The electronic state is 1-A.
 Alpha  occ. eigenvalues --  -19.29718 -19.27900 -19.23247 -19.20822 -14.48967
 Alpha  occ. eigenvalues --  -14.43874 -10.42784 -10.40618 -10.35149 -10.34356
 Alpha  occ. eigenvalues --  -10.33430 -10.33198 -10.32221 -10.32112 -10.31967
 Alpha  occ. eigenvalues --  -10.31122 -10.29247  -1.22350  -1.20167  -1.12941
 Alpha  occ. eigenvalues --   -1.10231  -1.09527  -1.07656  -0.91036  -0.88657
 Alpha  occ. eigenvalues --   -0.85096  -0.81987  -0.79913  -0.78300  -0.69135
 Alpha  occ. eigenvalues --   -0.67710  -0.66707  -0.66234  -0.64978  -0.63832
 Alpha  occ. eigenvalues --   -0.62204  -0.58973  -0.58167  -0.56862  -0.56185
 Alpha  occ. eigenvalues --   -0.55374  -0.54639  -0.54010  -0.52504  -0.50502
 Alpha  occ. eigenvalues --   -0.50265  -0.50004  -0.48728  -0.47804  -0.47376
 Alpha  occ. eigenvalues --   -0.45631  -0.44787  -0.44184  -0.43347  -0.42863
 Alpha  occ. eigenvalues --   -0.39449  -0.39382  -0.38289  -0.37504  -0.37030
 Alpha  occ. eigenvalues --   -0.35431  -0.31496  -0.26544
 Alpha virt. eigenvalues --   -0.03785   0.08545   0.10569   0.12247   0.12500
 Alpha virt. eigenvalues --    0.13306   0.14427   0.15380   0.15917   0.16433
 Alpha virt. eigenvalues --    0.16807   0.17200   0.17767   0.18202   0.19015

 Mulliken charges:
               1
     1  C   -0.118788
     2  C   -0.083816
     3  C   -0.115795
     4  C   -0.156671
     5  H    0.169481
     6  H    0.166762
     7  C   -0.124629
     8  H    0.120127
     9  H    0.161078
    10  C   -0.101813
    11  H    0.180031
    12  C   -0.085994
    13  H    0.159200
    14  H    0.153931
    15  H    0.149236
    16  N   -0.305939
    17  N   -0.000062
    18  C    0.356096
    19  C    0.373832
    20  O   -0.344059
    21  O   -0.398160
    22  O   -0.289130
    23  O   -0.282196
    24  C   -0.203192
    25  H    0.135044
    26  H    0.140253
    27  H    0.125834
    28  C   -0.207391
    29  H    0.136677
    30  H    0.147820
    31  H    0.142231
 Sum of Mulliken charges =   0.00000

 Dipole moment (field-independent basis, Debye):
    X=              4.4194    Y=              5.7896    Z=             -6.2696  Tot=              9.6103
 Quadrupole moment (field-independent basis, Debye-Ang):
   XX=            -88.3182   YY=            -87.2115   ZZ=           -103.5632
   XY=             -0.7649   XZ=              4.7738   YZ=              4.0384

  Exact polarizability: 213.398  38.792 241.685 -18.310 -27.718 157.199
 Approx polarizability: 198.220  39.437 229.997 -26.874 -36.486 178.822

 ******    1 imaginary frequencies (negative Signs) ******

                      1                      2                      3
                      A                      A                      A
 Frequencies --   -636.4269                50.5242                55.1404
 Red. masses --      9.6616                 4.8686                 4.7902
 Frc consts  --      2.3057                 0.0073                 0.0086
 IR Inten    --   1959.9652                 2.6042                 0.1739

                      4                      5                      6
                      A                      A                      A
 Frequencies --     64.5749                83.7860                96.5938
 Red. masses --      5.9132                 5.0145                 3.7307
 Frc consts  --      0.0145                 0.0207                 0.0205
 IR Inten    --      1.6151                 1.3735                 2.5972

                      7                      8                      9
                      A                      A                      A
 Frequencies --    110.5440               155.5088               167.1291
 Red. masses --      4.1156                 3.9407                 1.4399
 Frc consts  --      0.0296                 0.0561                 0.0237
 IR Inten    --      1.7173                 8.1302                 1.4773

                     10                     11                     12
                      A                      A                      A
 Frequencies --    178.6149               186.0637               197.0846
 Red. masses --      1.6763                 1.5758                 3.7163
 Frc consts  --      0.0315                 0.0321                 0.0850
 IR Inten    --      0.7658                 1.1798                 4.8658

                     13                     14                     15
                      A                      A                      A
 Frequencies --    212.8301               274.9391               295.6341
 Red. masses --      3.2813                 4.6808                 6.1712
 Frc consts  --      0.0876                 0.2085                 0.3178
 IR Inten    --      6.1721                10.7463                10.5537

                     16                     17                     18
                      A                      A                      A
 Frequencies --    333.3719               341.6133               428.9872
 Red. masses --      5.1349                 5.7619                 6.0318
 Frc consts  --      0.3362                 0.3962                 0.6540
 IR Inten    --     16.2862                 7.0256                29.5930

                     19                     20                     21
                      A                      A                      A
 Frequencies --    440.5089               457.7618               539.3879
 Red. masses --      2.0412                 7.3282                 2.9876
 Frc consts  --      0.2334                 0.9047                 0.5121
 IR Inten    --      0.6588                41.8681                29.6318

                     22                     23                     24
                      A                      A                      A
 Frequencies --    612.9914               644.1362               685.0187
 Red. masses --      9.1292                 4.6187                 6.3338
 Frc consts  --      2.0211                 1.1291                 1.7511
 IR Inten    --     15.4858                17.2647                18.5411

                     25                     26                     27
                      A                      A                      A
 Frequencies --    716.2830               746.6358               776.6579
 Red. masses --      6.2470                 3.4808                 7.6711
 Frc consts  --      1.8884                 1.1433                 2.7263
 IR Inten    --     36.2602               116.3915                 9.4457

                     28                     29                     30
                      A                      A                      A
 Frequencies --    794.9211               802.2834               809.9156
 Red. masses --      3.5843                 2.3152                 3.0795
 Frc consts  --      1.3344                 0.8780                 1.1902
 IR Inten    --      8.7630                10.7765                61.6355

                     31                     32                     33
                      A                      A                      A
 Frequencies --    825.2043               832.3310               849.4693
 Red. masses --      2.7473                 2.3671                 1.6533
 Frc consts  --      1.1022                 0.9662                 0.7029
 IR Inten    --     18.7368                 8.2220                 6.9578

                     34                     35                     36
                      A                      A                      A
 Frequencies --    888.7647               916.0024               936.2671
 Red. masses --      2.4931                 5.1069                 1.7864
 Frc consts  --      1.1603                 2.5246                 0.9227
 IR Inten    --    176.1900                11.7364                 8.0105

                     37                     38                     39
                      A                      A                      A
 Frequencies --    948.8482               975.9903               978.6213
 Red. masses --      2.0519                 1.6130                 4.3713
 Frc consts  --      1.0884                 0.9053                 2.4665
 IR Inten    --      6.6100                18.4052                39.3458

                     40                     41                     42
                      A                      A                      A
 Frequencies --    994.7499              1017.7821              1043.9410
 Red. masses --      1.5611                 1.4857                 1.8743
 Frc consts  --      0.9101                 0.9068                 1.2035
 IR Inten    --     31.9385                 9.8066                23.5309

                     43                     44                     45
                      A                      A                      A
 Frequencies --   1056.0714              1071.4530              1079.7291
 Red. masses --      1.5554                 1.2255                 1.6413
 Frc consts  --      1.0221                 0.8289                 1.1273
 IR Inten    --      5.0561                 8.6588                 0.1277

                     46                     47                     48
                      A                      A                      A
 Frequencies --   1087.1714              1092.5658              1118.7396
 Red. masses --      1.2884                 6.8888                 8.1868
 Frc consts  --      0.8972                 4.8449                 6.0370
 IR Inten    --      1.2735                 1.6371               146.1616

                     49                     50                     51
                      A                      A                      A
 Frequencies --   1129.2260              1192.8129              1194.6183
 Red. masses --      1.3651                 1.2822                 1.2790
 Frc consts  --      1.0256                 1.0749                 1.0754
 IR Inten    --     54.6326                 1.9411                 0.5765

                     52                     53                     54
                      A                      A                      A
 Frequencies --   1202.2183              1220.9668              1230.8007
 Red. masses --      1.2109                 1.5558                 1.5316
 Frc consts  --      1.0312                 1.3665                 1.3670
 IR Inten    --     55.5835                69.7827                 7.0717

                     55                     56                     57
                      A                      A                      A
 Frequencies --   1247.3886              1266.0161              1274.6921
 Red. masses --      2.0025                 3.0273                 1.5052
 Frc consts  --      1.8358                 2.8588                 1.4409
 IR Inten    --    504.5967               496.3303                64.7628

                     58                     59                     60
                      A                      A                      A
 Frequencies --   1287.4531              1307.9967              1317.5365
 Red. masses --      5.6198                 2.2018                 1.9693
 Frc consts  --      5.4882                 2.2194                 2.0141
 IR Inten    --   1097.6975                25.3469                58.6575

                     61                     62                     63
                      A                      A                      A
 Frequencies --   1358.6178              1381.8758              1396.7058
 Red. masses --      4.0593                 2.9618                 4.0897
 Frc consts  --      4.4147                 3.3323                 4.7006
 IR Inten    --    133.5547               243.4301               200.7375

                     64                     65                     66
                      A                      A                      A
 Frequencies --   1430.3711              1481.4885              1487.8590
 Red. masses --      2.5760                 1.1524                 1.0471
 Frc consts  --      3.1052                 1.4902                 1.3657
 IR Inten    --     19.5090                42.6806                 9.2671

                     67                     68                     69
                      A                      A                      A
 Frequencies --   1489.9396              1492.7419              1494.3832
 Red. masses --      1.1253                 1.0548                 1.0985
 Frc consts  --      1.4719                 1.3849                 1.4454
 IR Inten    --     11.1031                12.8054                27.6525

                     70                     71                     72
                      A                      A                      A
 Frequencies --   1499.8666              1506.5076              1780.3076
 Red. masses --      1.1155                 1.0830                11.8643
 Frc consts  --      1.4785                 1.4482                22.1555
 IR Inten    --     17.6224                16.4530               740.2414

                     73                     74                     75
                      A                      A                      A
 Frequencies --   1817.1329              3062.2501              3070.1148
 Red. masses --     11.9379                 1.0315                 1.0313
 Frc consts  --     23.2248                 5.6992                 5.7273
 IR Inten    --    447.5827                53.9006                37.4573

                     76                     77                     78
                      A                      A                      A
 Frequencies --   3103.0335              3137.5746              3147.9562
 Red. masses --      1.0616                 1.1055                 1.1069
 Frc consts  --      6.0224                 6.4123                 6.4630
 IR Inten    --     24.9394                27.6164                21.0532

                     79                     80                     81
                      A                      A                      A
 Frequencies --   3164.2404              3167.3849              3180.4882
 Red. masses --      1.1055                 1.1060                 1.1060
 Frc consts  --      6.5216                 6.5374                 6.5917
 IR Inten    --      2.0180                18.2911                13.1411

                     82                     83                     84
                      A                      A                      A
 Frequencies --   3228.5420              3254.2233              3263.1264
 Red. masses --      1.0925                 1.0936                 1.0916
 Frc consts  --      6.7091                 6.8237                 6.8481
 IR Inten    --      3.9418                 0.3747                12.2760

                     85                     86                     87
                      A                      A                      A
 Frequencies --   3272.7259              3275.8822              3283.3552
 Red. masses --      1.0963                 1.0921                 1.0987
 Frc consts  --      6.9181                 6.9049                 6.9785
 IR Inten    --      0.1974                11.4532                 3.6054

 - Thermochemistry -
 -------------------
 Temperature   298.150 Kelvin.  Pressure   1.00000 Atm.
 Atom     1 has atomic number  6 and mass  12.00000

 Molecular mass:   238.09536 amu.
 Principal axes and moments of inertia in atomic units:
                           1         2         3
     Eigenvalues --  3009.498153972.732455612.51394
           X            0.99971  -0.02110   0.01173
           Y            0.02089   0.99963   0.01718
           Z           -0.01209  -0.01693   0.99978
 This molecule is an asymmetric top.
 Rotational symmetry number  1.
 Warning -- assumption of classical behavior for rotation
           may cause significant error
 Rotational temperatures (Kelvin)      0.02878     0.02180     0.01543
 Rotational constants (GHZ):           0.59968     0.45428     0.32156
    1 imaginary frequencies ignored.
 Zero-point vibrational energy     646423.5 (Joules/Mol)
                                  154.49892 (Kcal/Mol)
 Warning -- explicit consideration of  21 degrees of freedom as
           vibrations may cause significant error
 Vibrational temperatures:     72.69    79.33    92.91   120.55   138.98
          (Kelvin)            159.05   223.74   240.46   256.99   267.70
                              283.56   306.21   395.58   425.35   479.65
                              491.50   617.22   633.79   658.62   776.06
                              881.96   926.77   985.59  1030.57  1074.24
                             1117.44  1143.71  1154.31  1165.29  1187.28
                             1197.54  1222.20  1278.73  1317.92  1347.08
                             1365.18  1404.23  1408.02  1431.22  1464.36
                             1502.00  1519.45  1541.58  1553.49  1564.20
                             1571.96  1609.61  1624.70  1716.19  1718.79
                             1729.72  1756.70  1770.85  1794.71  1821.51
                             1834.00  1852.36  1881.91  1895.64  1954.75
                             1988.21  2009.55  2057.98  2131.53  2140.69
                             2143.69  2147.72  2150.08  2157.97  2167.53
                             2561.46  2614.45  4405.89  4417.20  4464.57
                             4514.26  4529.20  4552.63  4557.15  4576.01
                             4645.15  4682.10  4694.91  4708.72  4713.26
                             4724.01

 Zero-point correction=                           0.246210 (Hartree/Particle)
 Thermal correction to Energy=                    0.261818
 Thermal correction to Enthalpy=                  0.262762
 Thermal correction to Gibbs Free Energy=         0.202625
 Sum of electronic and zero-point Energies=           -837.616991
 Sum of electronic and thermal Energies=              -837.601383
 Sum of electronic and thermal Enthalpies=            -837.600439
 Sum of electronic and thermal Free Energies=         -837.660575

                     E (Thermal)             CV                S
                      KCal/Mol        Cal/Mol-Kelvin    Cal/Mol-Kelvin
 Total                  164.293             58.312            126.568
 Electronic               0.000              0.000              0.000
 Translational            0.889              2.981             42.304
 Rotational               0.889              2.981             32.573
 Vibrational            162.516             52.350             51.691
 Vibration     1          0.595              1.977              4.797
 Vibration     2          0.596              1.976              4.624
 Vibration     3          0.597              1.971              4.312
 Vibration     4          0.601              1.960              3.800
 Vibration     5          0.603              1.952              3.522
 Vibration     6          0.606              1.941              3.259
 Vibration     7          0.620              1.897              2.604
 Vibration     8          0.624              1.883              2.468
 Vibration     9          0.629              1.869              2.343
 Vibration    10          0.632              1.859              2.267
 Vibration    11          0.636              1.844              2.160
 Vibration    12          0.644              1.821              2.019
 Vibration    13          0.677              1.720              1.565
 Vibration    14          0.690              1.682              1.442
 Vibration    15          0.715              1.609              1.244
 Vibration    16          0.721              1.592              1.205
 Vibration    17          0.790              1.407              0.862
 Vibration    18          0.800              1.382              0.825
 Vibration    19          0.816              1.344              0.773
 Vibration    20          0.894              1.163              0.567
 Vibration    21          0.972              1.004              0.428

 Normal termination of Gaussian 09 at Fri Feb 25 01:06:17 2022.
