 Gaussian 09, Revision D.01,
 Gaussian 09:  ES64L-G09RevD.01 24-Apr-2013

 ----------------------------------------------------------------------
 #n wB97XD/Def2TZVP scrf(smd,solvent=toluene) opt=(calcfc,ts,noeigentes
 t)
 ----------------------------------------------------------------------

 ------------------------------
 ts cycloaddition toluene - opt
 ------------------------------
 Symbolic Z-matrix:
 Charge =  0 Multiplicity = 1

 SCF Done:  E(RwB97XD) =  -837.863194183     A.U. after   18 cycles

  Exact polarizability:   0.000   0.000   0.000   0.000   0.000   0.000
 Approx polarizability: 198.338  39.396 229.705 -26.924 -36.325 178.858

 SCF Done:  E(RwB97XD) =  -837.863201622     A.U. after   11 cycles
 SCF Done:  E(RwB97XD) =  -837.863200735     A.U. after   10 cycles
 Optimization completed.
    -- Stationary point found.

                         Standard orientation:
 ---------------------------------------------------------------------
 Center     Atomic      Atomic             Coordinates (Angstroms)
 Number     Number       Type             X           Y           Z
 ---------------------------------------------------------------------
      1          6           0        0.521484    0.792102   -0.841220
      2          6           0        1.682213    1.389266    0.005988
      3          6           0       -0.219981    2.361740    0.835454
      4          6           0       -0.653473    1.653274   -0.413616
      5          1           0        0.657590    0.459697   -1.857094
      6          1           0       -1.675271    1.480369   -0.706367
      7          6           0        1.056999    1.733494    1.347646
      8          1           0        1.681130    2.434949    1.902501
      9          1           0        0.859308    0.852410    1.955799
     10          6           0        1.330482    2.425553   -0.935021
     11          1           0        1.825221    2.615004   -1.874863
     12          6           0        0.051235    3.018016   -0.484196
     13          1           0       -0.392879    3.923378   -0.861807
     14          1           0        2.633477    0.882475   -0.074984
     15          1           0       -0.975978    2.758952    1.493975
     16          7           0       -0.777691   -0.781777    0.868603
     17          7           0        0.035879   -0.951530   -0.121825
     18          6           0       -2.122589   -0.771223    0.504411
     19          6           0        1.297638   -1.472406    0.275201
     20          8           0        1.592665   -1.889987    1.359198
     21          8           0       -2.993643   -0.551721    1.312336
     22          8           0        2.094002   -1.537691   -0.797103
     23          8           0       -2.379466   -1.061482   -0.784457
     24          6           0       -3.754348   -1.101284   -1.138377
     25          1           0       -3.781313   -1.343397   -2.199268
     26          1           0       -4.284197   -1.866690   -0.569907
     27          1           0       -4.236532   -0.137370   -0.965609
     28          6           0        3.363050   -2.145978   -0.582197
     29          1           0        3.919665   -1.633157    0.203337
     30          1           0        3.245587   -3.194905   -0.308209
     31          1           0        3.892154   -2.066831   -1.529174
 ---------------------------------------------------------------------

 The electronic state is 1-A.
 Alpha  occ. eigenvalues --  -19.29718 -19.27900 -19.23247 -19.20822 -14.48968
 Alpha  occ. eigenvalues --  -14.43875 -10.42784 -10.40618 -10.35149 -10.34356
 Alpha  occ. eigenvalues --  -10.33430 -10.33198 -10.32221 -10.32112 -10.31967
 Alpha  occ. eigenvalues --  -10.31122 -10.29247  -1.22350  -1.20167  -1.12941
 Alpha  occ. eigenvalues --   -1.10231  -1.09527  -1.07656  -0.91036  -0.88657
 Alpha  occ. eigenvalues --   -0.85096  -0.81987  -0.79913  -0.78300  -0.69135
 Alpha  occ. eigenvalues --   -0.67710  -0.66707  -0.66234  -0.64978  -0.63832
 Alpha  occ. eigenvalues --   -0.62204  -0.58973  -0.58167  -0.56862  -0.56185
 Alpha  occ. eigenvalues --   -0.55374  -0.54639  -0.54010  -0.52504  -0.50502
 Alpha  occ. eigenvalues --   -0.50265  -0.50004  -0.48728  -0.47804  -0.47376
 Alpha  occ. eigenvalues --   -0.45631  -0.44787  -0.44184  -0.43347  -0.42863
 Alpha  occ. eigenvalues --   -0.39449  -0.39382  -0.38289  -0.37504  -0.37030
 Alpha  occ. eigenvalues --   -0.35432  -0.31496  -0.26544
 Alpha virt. eigenvalues --   -0.03786   0.08545   0.10569   0.12247   0.12500
 Alpha virt. eigenvalues --    0.13306   0.14427   0.15380   0.15917   0.16433
 Alpha virt. eigenvalues --    0.16807   0.17200   0.17767   0.18202   0.19015

 Mulliken charges:
               1
     1  C   -0.118790
     2  C   -0.083816
     3  C   -0.115794
     4  C   -0.156671
     5  H    0.169483
     6  H    0.166762
     7  C   -0.124629
     8  H    0.120127
     9  H    0.161077
    10  C   -0.101814
    11  H    0.180032
    12  C   -0.085994
    13  H    0.159199
    14  H    0.153932
    15  H    0.149235
    16  N   -0.305936
    17  N   -0.000062
    18  C    0.356098
    19  C    0.373831
    20  O   -0.344059
    21  O   -0.398160
    22  O   -0.289132
    23  O   -0.282196
    24  C   -0.203193
    25  H    0.135044
    26  H    0.140254
    27  H    0.125834
    28  C   -0.207390
    29  H    0.136678
    30  H    0.147819
    31  H    0.142230
 Sum of Mulliken charges =   0.00000

 Dipole moment (field-independent basis, Debye):
    X=              4.4193    Y=              5.7896    Z=             -6.2695  Tot=              9.6102
 Quadrupole moment (field-independent basis, Debye-Ang):
   XX=            -88.3183   YY=            -87.2117   ZZ=           -103.5632
   XY=             -0.7647   XZ=              4.7738   YZ=              4.0383

 Normal termination of Gaussian 09 at Wed Feb 23 18:57:56 2022.
