 Gaussian 09, Revision D.01,
 Gaussian 09:  ES64L-G09RevD.01 24-Apr-2013

 ----------------------------------------------------------------------
 # freq scrf=(cpcm,solvent=toluene) geom=connectivity def2svp empirical
 dispersion=gd3 m062x
 ----------------------------------------------------------------------

 -------------------
 Title Card Required
 -------------------
 Symbolic Z-matrix:
 Charge =  0 Multiplicity = 1

                         Standard orientation:
 ---------------------------------------------------------------------
 Center     Atomic      Atomic             Coordinates (Angstroms)
 Number     Number       Type             X           Y           Z
 ---------------------------------------------------------------------
      1          6           0        0.458129    0.782917   -0.838612
      2          6           0        1.572555    1.430114    0.043723
      3          6           0       -0.404231    2.259159    0.867333
      4          6           0       -0.773220    1.569258   -0.416157
      5          1           0        0.636481    0.473393   -1.865542
      6          1           0       -1.784832    1.336998   -0.739469
      7          6           0        0.904133    1.691140    1.387101
      8          1           0        1.479643    2.415776    1.979462
      9          1           0        0.746525    0.768122    1.960428
     10          6           0        1.164852    2.466189   -0.879871
     11          1           0        1.658249    2.707274   -1.819653
     12          6           0       -0.156225    2.972078   -0.428567
     13          1           0       -0.653460    3.868791   -0.788301
     14          1           0        2.560811    0.976429   -0.043306
     15          1           0       -1.203239    2.592214    1.527391
     16          7           0       -0.715996   -0.858558    0.865499
     17          7           0        0.107597   -0.940858   -0.128332
     18          6           0       -2.058549   -0.901352    0.502285
     19          6           0        1.404036   -1.387587    0.244469
     20          8           0        1.733503   -1.801316    1.319988
     21          8           0       -2.949265   -0.813846    1.313602
     22          8           0        2.209078   -1.359900   -0.823895
     23          8           0       -2.300859   -1.068832   -0.815469
     24          6           0       -3.669036   -1.141630   -1.171431
     25          1           0       -3.699406   -1.315099   -2.252136
     26          1           0       -4.168999   -1.962605   -0.640035
     27          1           0       -4.188645   -0.204237   -0.923872
     28          6           0        3.519894   -1.863590   -0.611652
     29          1           0        4.036711   -1.286954    0.168348
     30          1           0        3.481556   -2.916242   -0.301767
     31          1           0        4.043715   -1.766973   -1.567249
 ---------------------------------------------------------------------

 SCF Done:  E(RM062X) =  -836.841561403     A.U. after   17 cycles

 The electronic state is 1-A.
 Alpha  occ. eigenvalues --  -19.68166 -19.65977 -19.62635 -19.59749 -14.82074
 Alpha  occ. eigenvalues --  -14.76600 -10.70595 -10.68025 -10.62481 -10.61966
 Alpha  occ. eigenvalues --  -10.61295 -10.60597 -10.59876 -10.59463 -10.59236
 Alpha  occ. eigenvalues --  -10.58488 -10.56881  -1.23873  -1.21293  -1.13886
 Alpha  occ. eigenvalues --   -1.10758  -1.10141  -1.07895  -0.90607  -0.88273
 Alpha  occ. eigenvalues --   -0.84319  -0.81259  -0.78932  -0.77135  -0.67836
 Alpha  occ. eigenvalues --   -0.66552  -0.65211  -0.64994  -0.63481  -0.62816
 Alpha  occ. eigenvalues --   -0.61743  -0.58489  -0.57503  -0.56206  -0.55258
 Alpha  occ. eigenvalues --   -0.54451  -0.53319  -0.52962  -0.51404  -0.49373
 Alpha  occ. eigenvalues --   -0.49021  -0.48472  -0.47339  -0.46287  -0.46074
 Alpha  occ. eigenvalues --   -0.44056  -0.43615  -0.42679  -0.41924  -0.41358
 Alpha  occ. eigenvalues --   -0.38130  -0.37775  -0.36818  -0.36232  -0.35875
 Alpha  occ. eigenvalues --   -0.34834  -0.30099  -0.24339
 Alpha virt. eigenvalues --   -0.06971   0.05717   0.07889   0.09425   0.10195
 Alpha virt. eigenvalues --    0.11354   0.12744   0.13773   0.14511   0.15112
 Alpha virt. eigenvalues --    0.15898   0.16292   0.16522   0.16720   0.16859

 Mulliken charges:
               1
     1  C   -0.025374
     2  C   -0.209748
     3  C   -0.134343
     4  C   -0.097879
     5  H    0.097860
     6  H    0.081814
     7  C    0.237788
     8  H    0.067244
     9  H    0.087632
    10  C    0.097800
    11  H    0.086823
    12  C   -0.034914
    13  H    0.065791
    14  H    0.073143
    15  H    0.075835
    16  N   -0.227203
    17  N   -0.191316
    18  C    0.279729
    19  C    0.334327
    20  O   -0.244237
    21  O   -0.297896
    22  O   -0.360524
    23  O   -0.368841
    24  C    0.132224
    25  H    0.056196
    26  H    0.055958
    27  H    0.046585
    28  C    0.125127
    29  H    0.058686
    30  H    0.065747
    31  H    0.065967
 Sum of Mulliken charges =   0.00000

 Dipole moment (field-independent basis, Debye):
    X=              4.0766    Y=              6.0888    Z=             -6.0347  Tot=              9.4926
 Quadrupole moment (field-independent basis, Debye-Ang):
   XX=            -87.1217   YY=            -88.7468   ZZ=           -103.5619
   XY=             -2.0961   XZ=              4.4408   YZ=              4.3324

  Exact polarizability: 189.746  34.226 219.754 -16.293 -28.147 141.336
 Approx polarizability: 198.136  51.563 255.081 -31.818 -51.768 177.618

 ******    1 imaginary frequencies (negative Signs) ******

                      1                      2                      3
                      A                      A                      A
 Frequencies --   -636.8978                25.1017                55.3963
 Red. masses --      9.9628                 4.0924                 6.1082
 Frc consts  --      2.3811                 0.0015                 0.0110
 IR Inten    --   1716.3237                 0.1494                 0.5971

                      4                      5                      6
                      A                      A                      A
 Frequencies --     67.8797                68.0374                92.0027
 Red. masses --      3.5583                 6.0376                 3.5838
 Frc consts  --      0.0097                 0.0165                 0.0179
 IR Inten    --      0.7137                 3.2907                 3.0781

                      7                      8                      9
                      A                      A                      A
 Frequencies --    109.2906               152.1835               156.9553
 Red. masses --      3.9041                 1.6781                 1.1448
 Frc consts  --      0.0275                 0.0229                 0.0166
 IR Inten    --      1.4157                 4.2257                 1.1389

                     10                     11                     12
                      A                      A                      A
 Frequencies --    180.0271               193.8480               203.4794
 Red. masses --      2.4225                 3.2285                 3.8335
 Frc consts  --      0.0463                 0.0715                 0.0935
 IR Inten    --      3.1384                 1.3989                 4.9879

                     13                     14                     15
                      A                      A                      A
 Frequencies --    211.8018               283.9797               311.3972
 Red. masses --      4.4284                 4.3097                 6.2599
 Frc consts  --      0.1170                 0.2048                 0.3576
 IR Inten    --      5.4920                 4.9010                 8.4318

                     16                     17                     18
                      A                      A                      A
 Frequencies --    336.1950               351.9860               436.2838
 Red. masses --      5.7813                 5.0886                 4.5528
 Frc consts  --      0.3850                 0.3714                 0.5106
 IR Inten    --     15.1717                 7.8293                27.7025

                     19                     20                     21
                      A                      A                      A
 Frequencies --    445.1711               473.2957               523.8431
 Red. masses --      2.2634                 7.0885                 3.0416
 Frc consts  --      0.2643                 0.9356                 0.4918
 IR Inten    --      5.3356                16.7431                37.4553

                     22                     23                     24
                      A                      A                      A
 Frequencies --    627.1449               642.2922               694.4089
 Red. masses --      7.7363                 4.5209                 5.6348
 Frc consts  --      1.7927                 1.0989                 1.6009
 IR Inten    --     29.0226                 4.1632                 9.5601

                     25                     26                     27
                      A                      A                      A
 Frequencies --    724.0068               752.2179               781.8813
 Red. masses --      5.5014                 3.3760                 6.9381
 Frc consts  --      1.6991                 1.1255                 2.4990
 IR Inten    --     52.1679                71.9355                14.6721

                     28                     29                     30
                      A                      A                      A
 Frequencies --    791.7594               806.6163               813.0109
 Red. masses --      3.1447                 1.5674                 4.7074
 Frc consts  --      1.1615                 0.6008                 1.8333
 IR Inten    --      1.5385                54.0311                36.2196

                     31                     32                     33
                      A                      A                      A
 Frequencies --    825.8324               833.6227               848.0664
 Red. masses --      2.0512                 2.8459                 1.8896
 Frc consts  --      0.8242                 1.1652                 0.8007
 IR Inten    --     34.6047                 5.5975                28.2817

                     34                     35                     36
                      A                      A                      A
 Frequencies --    898.5273               934.0974               942.0912
 Red. masses --      2.3199                 2.3667                 1.9011
 Frc consts  --      1.1035                 1.2167                 0.9941
 IR Inten    --    157.0597                15.8636                 4.7608

                     37                     38                     39
                      A                      A                      A
 Frequencies --    944.6420               962.5595               972.7071
 Red. masses --      2.3284                 1.6118                 1.5117
 Frc consts  --      1.2242                 0.8799                 0.8427
 IR Inten    --     15.1438                 8.0456                47.2608

                     40                     41                     42
                      A                      A                      A
 Frequencies --   1004.3070              1020.5546              1039.3027
 Red. masses --      4.1104                 1.7122                 1.4790
 Frc consts  --      2.4427                 1.0507                 0.9412
 IR Inten    --     41.8511                19.8314                11.2284

                     43                     44                     45
                      A                      A                      A
 Frequencies --   1046.2463              1051.0281              1070.9925
 Red. masses --      1.1941                 1.4361                 1.4436
 Frc consts  --      0.7701                 0.9347                 0.9756
 IR Inten    --      5.8615                 0.7468                 7.9431

                     46                     47                     48
                      A                      A                      A
 Frequencies --   1078.6215              1110.2917              1132.4823
 Red. masses --      1.8860                 1.4430                 5.1609
 Frc consts  --      1.2928                 1.0481                 3.8998
 IR Inten    --      1.1712                41.2047                 1.9244

                     49                     50                     51
                      A                      A                      A
 Frequencies --   1164.7031              1176.4359              1183.6744
 Red. masses --      5.9840                 1.2195                 1.2932
 Frc consts  --      4.7827                 0.9944                 1.0675
 IR Inten    --    131.6592                24.4832                 1.9171

                     52                     53                     54
                      A                      A                      A
 Frequencies --   1185.2628              1213.8558              1218.8341
 Red. masses --      1.3096                 1.6004                 1.6819
 Frc consts  --      1.0840                 1.3893                 1.4721
 IR Inten    --      3.9732                71.0500                29.9393

                     55                     56                     57
                      A                      A                      A
 Frequencies --   1223.3651              1247.1202              1290.5641
 Red. masses --      1.5538                 1.3609                 4.6431
 Frc consts  --      1.3702                 1.2471                 4.5564
 IR Inten    --     58.5404                 4.2690               521.5385

                     58                     59                     60
                      A                      A                      A
 Frequencies --   1302.6042              1308.5020              1318.9305
 Red. masses --      2.8105                 2.3352                 6.0911
 Frc consts  --      2.8097                 2.3557                 6.2430
 IR Inten    --    215.1422               224.6600              1214.9623

                     61                     62                     63
                      A                      A                      A
 Frequencies --   1362.9992              1395.6769              1429.7062
 Red. masses --      2.4917                 4.1448                 3.0393
 Frc consts  --      2.7274                 4.7569                 3.6603
 IR Inten    --      1.1831                71.8921                21.0961

                     64                     65                     66
                      A                      A                      A
 Frequencies --   1444.8467              1460.1218              1462.3355
 Red. masses --      2.8798                 1.0915                 1.0543
 Frc consts  --      3.5421                 1.3711                 1.3283
 IR Inten    --    538.0741                47.0236                24.1956

                     67                     68                     69
                      A                      A                      A
 Frequencies --   1463.3619              1464.9898              1468.5461
 Red. masses --      1.4413                 1.1458                 1.1765
 Frc consts  --      1.8185                 1.4488                 1.4949
 IR Inten    --     93.8503                49.0291                37.2836

                     70                     71                     72
                      A                      A                      A
 Frequencies --   1483.7594              1486.9252              1842.7390
 Red. masses --      1.1299                 1.1316                12.2521
 Frc consts  --      1.4656                 1.4740                24.5125
 IR Inten    --     33.4008                33.9713               835.7637

                     73                     74                     75
                      A                      A                      A
 Frequencies --   1883.7495              3066.4109              3075.8846
 Red. masses --     12.3375                 1.0335                 1.0323
 Frc consts  --     25.7943                 5.7256                 5.7545
 IR Inten    --    516.1231                45.9713                32.0885

                     76                     77                     78
                      A                      A                      A
 Frequencies --   3093.6031              3158.4878              3166.2547
 Red. masses --      1.0613                 1.1050                 1.1106
 Frc consts  --      5.9841                 6.4949                 6.5598
 IR Inten    --     16.2071                26.9019                 3.1631

                     79                     80                     81
                      A                      A                      A
 Frequencies --   3169.6069              3197.9552              3211.6170
 Red. masses --      1.1076                 1.1086                 1.1084
 Frc consts  --      6.5563                 6.6797                 6.7360
 IR Inten    --     17.5536                12.4379                 8.2085

                     82                     83                     84
                      A                      A                      A
 Frequencies --   3222.6489              3241.3549              3256.0828
 Red. masses --      1.0939                 1.0951                 1.0913
 Frc consts  --      6.6936                 6.7788                 6.8170
 IR Inten    --      1.7097                 0.4446                 5.4789

                     85                     86                     87
                      A                      A                      A
 Frequencies --   3262.5654              3265.2585              3270.9693
 Red. masses --      1.0944                 1.0957                 1.1017
 Frc consts  --      6.8633                 6.8832                 6.9447
 IR Inten    --      7.9402                14.7369                17.0026

 - Thermochemistry -
 -------------------
 Temperature   298.150 Kelvin.  Pressure   1.00000 Atm.
 Atom     1 has atomic number  6 and mass  12.00000

 Molecular mass:   238.09536 amu.
 Principal axes and moments of inertia in atomic units:
                           1         2         3
     Eigenvalues --  2893.557343981.625725494.20257
           X            0.99979  -0.01718   0.01099
           Y            0.01697   0.99968   0.01876
           Z           -0.01131  -0.01857   0.99976
 This molecule is an asymmetric top.
 Rotational symmetry number  1.
 Warning -- assumption of classical behavior for rotation
           may cause significant error
 Rotational temperatures (Kelvin)      0.02993     0.02175     0.01576
 Rotational constants (GHZ):           0.62371     0.45327     0.32848
    1 imaginary frequencies ignored.
 Zero-point vibrational energy     646998.9 (Joules/Mol)
                                  154.63646 (Kcal/Mol)
 Warning -- explicit consideration of  20 degrees of freedom as
           vibrations may cause significant error
 Vibrational temperatures:     36.12    79.70    97.66    97.89   132.37
          (Kelvin)            157.24   218.96   225.82   259.02   278.90
                              292.76   304.74   408.58   448.03   483.71
                              506.43   627.71   640.50   680.97   753.69
                              902.32   924.11   999.10  1041.68  1082.27
                             1124.95  1139.16  1160.54  1169.74  1188.19
                             1199.40  1220.18  1292.78  1343.96  1355.46
                             1359.13  1384.91  1399.51  1444.97  1468.35
                             1495.32  1505.31  1512.19  1540.92  1551.89
                             1597.46  1629.39  1675.75  1692.63  1703.04
                             1705.33  1746.47  1753.63  1760.15  1794.33
                             1856.83  1874.15  1882.64  1897.64  1961.05
                             2008.07  2057.03  2078.81  2100.79  2103.97
                             2105.45  2107.79  2112.91  2134.80  2139.35
                             2651.29  2710.29  4411.88  4425.51  4451.00
                             4544.35  4555.53  4560.35  4601.14  4620.79
                             4636.67  4663.58  4684.77  4694.10  4697.97
                             4706.19

 Zero-point correction=                           0.246429 (Hartree/Particle)
 Thermal correction to Energy=                    0.262051
 Thermal correction to Enthalpy=                  0.262996
 Thermal correction to Gibbs Free Energy=         0.202163
 Sum of electronic and zero-point Energies=           -836.595133
 Sum of electronic and thermal Energies=              -836.579510
 Sum of electronic and thermal Enthalpies=            -836.578566
 Sum of electronic and thermal Free Energies=         -836.639399

                     E (Thermal)             CV                S
                      KCal/Mol        Cal/Mol-Kelvin    Cal/Mol-Kelvin
 Total                  164.440             58.170            128.034
 Electronic               0.000              0.000              0.000
 Translational            0.889              2.981             42.304
 Rotational               0.889              2.981             32.515
 Vibrational            162.662             52.208             53.215
 Vibration     1          0.593              1.985              6.183
 Vibration     2          0.596              1.975              4.615
 Vibration     3          0.598              1.970              4.214
 Vibration     4          0.598              1.969              4.209
 Vibration     5          0.602              1.955              3.617
 Vibration     6          0.606              1.942              3.281
 Vibration     7          0.619              1.900              2.645
 Vibration     8          0.621              1.895              2.586
 Vibration     9          0.629              1.867              2.328
 Vibration    10          0.635              1.848              2.191
 Vibration    11          0.639              1.835              2.101
 Vibration    12          0.643              1.823              2.028
 Vibration    13          0.682              1.703              1.510
 Vibration    14          0.700              1.652              1.355
 Vibration    15          0.717              1.603              1.230
 Vibration    16          0.729              1.571              1.157
 Vibration    17          0.797              1.391              0.838
 Vibration    18          0.805              1.372              0.811
 Vibration    19          0.830              1.309              0.728
 Vibration    20          0.879              1.197              0.601

 1\1\GINC-D10S2B3\Freq\RM062X\def2SVP\C11H14N2O4\CHMKSH\07-Sep-2020\0\\
 # freq scrf=(cpcm,solvent=toluene) geom=connectivity def2svp empirical
 dispersion=gd3 m062x\\Title Card Required\\0,1\C,0.458129,0.782917,-0.
 838612\C,1.572555,1.430114,0.043723\C,-0.404231,2.259159,0.867333\C,-0
 .77322,1.569258,-0.416157\H,0.636481,0.473393,-1.865542\H,-1.784832,1.
 336998,-0.739469\C,0.904133,1.69114,1.387101\H,1.479643,2.415776,1.979
 462\H,0.746525,0.768122,1.960428\C,1.164852,2.466189,-0.879871\H,1.658
 249,2.707274,-1.819653\C,-0.156225,2.972078,-0.428567\H,-0.653459,3.86

 Normal termination of Gaussian 09 at Mon Sep  7 19:25:59 2020.
