 Gaussian 09, Revision D.01,
 Gaussian 09:  ES64L-G09RevD.01 24-Apr-2013

 ----------------------------------------------------------------------
 # opt freq scrf=(cpcm,solvent=toluene) geom=connectivity def2svp m062x
  empiricaldispersion=gd3
 ----------------------------------------------------------------------

 -------------------
 Title Card Required
 -------------------
 Symbolic Z-matrix:
 Charge =  0 Multiplicity = 1

 SCF Done:  E(RM062X) =  -271.132741078     A.U. after   11 cycles
 SCF Done:  E(RM062X) =  -271.139136262     A.U. after   10 cycles
 SCF Done:  E(RM062X) =  -271.139607373     A.U. after    9 cycles
 SCF Done:  E(RM062X) =  -271.139628841     A.U. after    8 cycles
 SCF Done:  E(RM062X) =  -271.139694297     A.U. after    8 cycles
 SCF Done:  E(RM062X) =  -271.139638237     A.U. after    7 cycles
 Optimization completed.
    -- Stationary point found.
 Normal termination of Gaussian 09 at Mon Sep  7 11:40:38 2020.

 -------------------------------------------------------------------
 #N Geom=AllCheck Guess=TCheck SCRF=Check GenChk RM062X/def2SVP Freq
 -------------------------------------------------------------------

 Structure from the checkpoint file:  "m062x_quadricyclane_cycloaddition_PM6_toluene.chk"
 -------------------
 Title Card Required
 -------------------
 Charge =  0 Multiplicity = 1

                         Standard orientation:
 ---------------------------------------------------------------------
 Center     Atomic      Atomic             Coordinates (Angstroms)
 Number     Number       Type             X           Y           Z
 ---------------------------------------------------------------------
      1          6           0        0.753370    0.771506   -0.705247
      2          6           0        0.000000    1.147432    0.546688
      3          6           0        0.000000   -1.147432    0.546688
      4          6           0        0.753516   -0.771427   -0.705122
      5          1           0        1.443803    1.428039   -1.231629
      6          1           0        1.444057   -1.427912   -1.231415
      7          6           0        0.000000    0.000000    1.534439
      8          1           0       -0.896154   -0.000080    2.173407
      9          1           0        0.896154    0.000080    2.173407
     10          6           0       -0.753516    0.771427   -0.705122
     11          1           0       -1.444057    1.427912   -1.231415
     12          6           0       -0.753370   -0.771506   -0.705247
     13          1           0       -1.443803   -1.428039   -1.231629
     14          1           0        0.000064    2.189489    0.868410
     15          1           0       -0.000064   -2.189489    0.868410
 ---------------------------------------------------------------------

 SCF Done:  E(RM062X) =  -271.139638237     A.U. after    1 cycles

 The electronic state is 1-A.
 Alpha  occ. eigenvalues --  -10.55460 -10.55450 -10.55410 -10.55401 -10.55400
 Alpha  occ. eigenvalues --  -10.55382 -10.54709  -1.04857  -0.87292  -0.81888
 Alpha  occ. eigenvalues --   -0.71401  -0.64234  -0.62292  -0.61116  -0.58611
 Alpha  occ. eigenvalues --   -0.50643  -0.49960  -0.49824  -0.45803  -0.41126
 Alpha  occ. eigenvalues --   -0.40175  -0.37284  -0.33777  -0.32627  -0.27803
 Alpha virt. eigenvalues --    0.10368   0.12357   0.14142   0.14652   0.16447
 Alpha virt. eigenvalues --    0.16679   0.17869   0.18062   0.19064   0.19106
 Alpha virt. eigenvalues --    0.23187   0.24568   0.25647   0.27792   0.30145

 Mulliken charges:
               1
     1  C   -0.027759
     2  C   -0.205567
     3  C   -0.205567
     4  C   -0.027827
     5  H    0.028312
     6  H    0.028308
     7  C    0.229171
     8  H    0.043435
     9  H    0.043435
    10  C   -0.027827
    11  H    0.028308
    12  C   -0.027759
    13  H    0.028312
    14  H    0.046512
    15  H    0.046512
 Sum of Mulliken charges =   0.00000

 Dipole moment (field-independent basis, Debye):
    X=              0.0000    Y=              0.0000    Z=             -0.0266  Tot=              0.0266
 Quadrupole moment (field-independent basis, Debye-Ang):
   XX=            -42.1989   YY=            -39.1912   ZZ=            -41.8379
   XY=              0.0006   XZ=              0.0000   YZ=              0.0000

  Exact polarizability:  68.118   0.001  72.508   0.000   0.000  74.148
 Approx polarizability:  76.933   0.001  73.642   0.000   0.000  77.945

                      1                      2                      3
                      B                      A                      B
 Frequencies --    395.6212               539.0065               676.9386
 Red. masses --      1.8061                 2.6923                 2.8761
 Frc consts  --      0.1666                 0.4609                 0.7765
 IR Inten    --      1.3301                 0.0000                 0.0008

                      4                      5                      6
                      A                      B                      A
 Frequencies --    713.9157               736.0194               742.8088
 Red. masses --      3.4722                 1.7049                 3.5890
 Frc consts  --      1.0427                 0.5442                 1.1668
 IR Inten    --      0.0000                 1.8272                 4.7512

                      7                      8                      9
                      B                      A                      A
 Frequencies --    800.5822               816.7862               858.1963
 Red. masses --      1.7398                 1.3940                 1.4598
 Frc consts  --      0.6570                 0.5479                 0.6335
 IR Inten    --     64.2854                35.5800                 0.0000

                     10                     11                     12
                      B                      A                      B
 Frequencies --    884.5298               925.9407               934.1510
 Red. masses --      1.3574                 1.6082                 1.7918
 Frc consts  --      0.6257                 0.8124                 0.9212
 IR Inten    --      1.9330                 4.9884                 3.1155

                     13                     14                     15
                      B                      A                      B
 Frequencies --    942.8768               973.9300              1010.4651
 Red. masses --      1.6809                 3.1652                 2.3941
 Frc consts  --      0.8805                 1.7689                 1.4402
 IR Inten    --     11.4476                 0.9610                 0.0371

                     16                     17                     18
                      A                      B                      A
 Frequencies --   1012.9448              1021.3668              1032.1939
 Red. masses --      1.4123                 1.5705                 1.2261
 Frc consts  --      0.8538                 0.9653                 0.7696
 IR Inten    --      0.0084                 0.3742                 0.0000

                     19                     20                     21
                      B                      A                      B
 Frequencies --   1037.4488              1067.0049              1079.5796
 Red. masses --      1.2103                 2.3544                 1.8981
 Frc consts  --      0.7675                 1.5793                 1.3034
 IR Inten    --      0.7281                 0.0000                 0.2581

                     22                     23                     24
                      A                      A                      A
 Frequencies --   1123.9651              1183.6672              1213.3919
 Red. masses --      2.9580                 1.2384                 1.4682
 Frc consts  --      2.2017                 1.0223                 1.2736
 IR Inten    --      2.4218                 0.0000                 0.0000

                     25                     26                     27
                      B                      B                      B
 Frequencies --   1237.3670              1281.2836              1308.6267
 Red. masses --      1.4699                 1.9871                 2.2401
 Frc consts  --      1.3260                 1.9220                 2.2602
 IR Inten    --      0.0013                25.6610                 2.5234

                     28                     29                     30
                      A                      A                      B
 Frequencies --   1308.7812              1397.1606              1433.9190
 Red. masses --      2.6015                 3.4298                 3.6467
 Frc consts  --      2.6255                 3.9447                 4.4177
 IR Inten    --      4.6552                 0.5695                 0.0599

                     31                     32                     33
                      A                      A                      B
 Frequencies --   1460.7696              3078.3885              3135.9748
 Red. masses --      1.1560                 1.0601                 1.1088
 Frc consts  --      1.4533                 5.9188                 6.4249
 IR Inten    --      1.2881                47.0669                25.0506

                     34                     35                     36
                      B                      A                      A
 Frequencies --   3212.8941              3215.6083              3221.4032
 Red. masses --      1.0919                 1.0938                 1.0895
 Frc consts  --      6.6408                 6.6637                 6.6615
 IR Inten    --      7.1220                 3.6024                 0.0000

                     37                     38                     39
                      B                      B                      A
 Frequencies --   3230.1915              3231.5131              3240.2961
 Red. masses --      1.0937                 1.0977                 1.1059
 Frc consts  --      6.7234                 6.7540                 6.8413
 IR Inten    --     10.6558                15.5299                 2.9290

 - Thermochemistry -
 -------------------
 Temperature   298.150 Kelvin.  Pressure   1.00000 Atm.
 Atom     1 has atomic number  6 and mass  12.00000

 Molecular mass:    92.06260 amu.
 Principal axes and moments of inertia in atomic units:
                           1         2         3
     Eigenvalues --   406.06550 411.82010 551.68240
           X           -0.00003   0.00000   1.00000
           Y            1.00000   0.00000   0.00003
           Z            0.00000   1.00000   0.00000
 This molecule is an asymmetric top.
 Rotational symmetry number  2.
 Rotational temperatures (Kelvin)      0.21330     0.21032     0.15700
 Rotational constants (GHZ):           4.44446     4.38235     3.27134
 Zero-point vibrational energy     339246.0 (Joules/Mol)
                                   81.08175 (Kcal/Mol)
 Warning -- explicit consideration of   2 degrees of freedom as
           vibrations may cause significant error
 Vibrational temperatures:    569.21   775.51   973.96  1027.16  1058.97
          (Kelvin)           1068.73  1151.86  1175.17  1234.75  1272.64
                             1332.22  1344.03  1356.59  1401.27  1453.83
                             1457.40  1469.52  1485.09  1492.66  1535.18
                             1553.27  1617.13  1703.03  1745.80  1780.29
                             1843.48  1882.82  1883.04  2010.20  2063.09
                             2101.72  4429.11  4511.96  4622.63  4626.54
                             4634.87  4647.52  4649.42  4662.06

 Zero-point correction=                           0.129212 (Hartree/Particle)
 Thermal correction to Energy=                    0.133784
 Thermal correction to Enthalpy=                  0.134728
 Thermal correction to Gibbs Free Energy=         0.102005
 Sum of electronic and zero-point Energies=           -271.010426
 Sum of electronic and thermal Energies=              -271.005854
 Sum of electronic and thermal Enthalpies=            -271.004910
 Sum of electronic and thermal Free Energies=         -271.037633

                     E (Thermal)             CV                S
                      KCal/Mol        Cal/Mol-Kelvin    Cal/Mol-Kelvin
 Total                   83.951             19.878             68.871
 Electronic               0.000              0.000              0.000
 Translational            0.889              2.981             39.472
 Rotational               0.889              2.981             24.648
 Vibrational             82.173             13.916              4.751
 Vibration     1          0.762              1.480              0.979
 Vibration     2          0.894              1.164              0.567

 Optimization completed.
    -- Stationary point found.
 Normal termination of Gaussian 09 at Mon Sep  7 11:42:05 2020.
