 Gaussian 09, Revision D.01,
 Gaussian 09:  ES64L-G09RevD.01 24-Apr-2013

 ----------------------------------------------------------------------
 # opt=(calcfc,ts,noeigentest) scrf=(cpcm,solvent=toluene) geom=connect
 ivity def2svp m062x empiricaldispersion=gd3
 ----------------------------------------------------------------------

 -------------------
 Title Card Required
 -------------------
 Symbolic Z-matrix:
 Charge =  0 Multiplicity = 1

 SCF Done:  E(RM062X) =  -836.809991724     A.U. after   17 cycles

  Exact polarizability:   0.000   0.000   0.000   0.000   0.000   0.000
 Approx polarizability: 176.799  27.881 285.280 -19.090 -30.833 161.667

 SCF Done:  E(RM062X) =  -836.833258065     A.U. after   17 cycles
 SCF Done:  E(RM062X) =  -836.838516913     A.U. after   17 cycles
 SCF Done:  E(RM062X) =  -836.839292350     A.U. after   14 cycles
 SCF Done:  E(RM062X) =  -836.839143568     A.U. after   15 cycles
 SCF Done:  E(RM062X) =  -836.839771027     A.U. after   14 cycles
 SCF Done:  E(RM062X) =  -836.838005596     A.U. after   16 cycles
 SCF Done:  E(RM062X) =  -836.839580753     A.U. after   14 cycles
 SCF Done:  E(RM062X) =  -836.839460486     A.U. after   17 cycles
 SCF Done:  E(RM062X) =  -836.837079956     A.U. after   17 cycles
 SCF Done:  E(RM062X) =  -836.829930990     A.U. after   16 cycles
 SCF Done:  E(RM062X) =  -836.836590181     A.U. after   15 cycles
 SCF Done:  E(RM062X) =  -836.839052954     A.U. after   17 cycles
 SCF Done:  E(RM062X) =  -836.840254111     A.U. after   13 cycles
 SCF Done:  E(RM062X) =  -836.841040992     A.U. after   17 cycles
 SCF Done:  E(RM062X) =  -836.841311655     A.U. after   16 cycles
 SCF Done:  E(RM062X) =  -836.841542340     A.U. after   14 cycles
 SCF Done:  E(RM062X) =  -836.841561226     A.U. after   13 cycles
 SCF Done:  E(RM062X) =  -836.841561235     A.U. after   11 cycles
 SCF Done:  E(RM062X) =  -836.841561404     A.U. after    8 cycles
 Optimization completed.
    -- Stationary point found.

                         Standard orientation:
 ---------------------------------------------------------------------
 Center     Atomic      Atomic             Coordinates (Angstroms)
 Number     Number       Type             X           Y           Z
 ---------------------------------------------------------------------
      1          6           0        0.458129    0.782917   -0.838612
      2          6           0        1.572555    1.430114    0.043723
      3          6           0       -0.404231    2.259159    0.867333
      4          6           0       -0.773220    1.569258   -0.416157
      5          1           0        0.636481    0.473393   -1.865542
      6          1           0       -1.784832    1.336998   -0.739469
      7          6           0        0.904133    1.691140    1.387101
      8          1           0        1.479643    2.415776    1.979462
      9          1           0        0.746525    0.768122    1.960428
     10          6           0        1.164852    2.466189   -0.879871
     11          1           0        1.658249    2.707274   -1.819653
     12          6           0       -0.156225    2.972078   -0.428567
     13          1           0       -0.653459    3.868791   -0.788301
     14          1           0        2.560811    0.976429   -0.043306
     15          1           0       -1.203239    2.592214    1.527391
     16          7           0       -0.715996   -0.858558    0.865499
     17          7           0        0.107597   -0.940858   -0.128332
     18          6           0       -2.058549   -0.901352    0.502285
     19          6           0        1.404036   -1.387587    0.244469
     20          8           0        1.733503   -1.801316    1.319988
     21          8           0       -2.949265   -0.813846    1.313602
     22          8           0        2.209078   -1.359900   -0.823895
     23          8           0       -2.300859   -1.068832   -0.815469
     24          6           0       -3.669036   -1.141629   -1.171431
     25          1           0       -3.699406   -1.315098   -2.252136
     26          1           0       -4.168999   -1.962604   -0.640035
     27          1           0       -4.188645   -0.204236   -0.923872
     28          6           0        3.519894   -1.863590   -0.611652
     29          1           0        4.036711   -1.286955    0.168348
     30          1           0        3.481556   -2.916242   -0.301767
     31          1           0        4.043715   -1.766974   -1.567249
 ---------------------------------------------------------------------

 The electronic state is 1-A.
 Alpha  occ. eigenvalues --  -19.68166 -19.65977 -19.62635 -19.59749 -14.82074
 Alpha  occ. eigenvalues --  -14.76600 -10.70595 -10.68025 -10.62481 -10.61966
 Alpha  occ. eigenvalues --  -10.61295 -10.60597 -10.59876 -10.59463 -10.59236
 Alpha  occ. eigenvalues --  -10.58488 -10.56881  -1.23873  -1.21293  -1.13886
 Alpha  occ. eigenvalues --   -1.10758  -1.10141  -1.07895  -0.90607  -0.88273
 Alpha  occ. eigenvalues --   -0.84319  -0.81259  -0.78932  -0.77135  -0.67836
 Alpha  occ. eigenvalues --   -0.66552  -0.65211  -0.64994  -0.63481  -0.62816
 Alpha  occ. eigenvalues --   -0.61743  -0.58489  -0.57503  -0.56206  -0.55258
 Alpha  occ. eigenvalues --   -0.54451  -0.53319  -0.52962  -0.51404  -0.49373
 Alpha  occ. eigenvalues --   -0.49021  -0.48472  -0.47339  -0.46287  -0.46074
 Alpha  occ. eigenvalues --   -0.44056  -0.43615  -0.42679  -0.41924  -0.41358
 Alpha  occ. eigenvalues --   -0.38130  -0.37775  -0.36818  -0.36232  -0.35875
 Alpha  occ. eigenvalues --   -0.34834  -0.30099  -0.24339
 Alpha virt. eigenvalues --   -0.06971   0.05717   0.07889   0.09425   0.10195
 Alpha virt. eigenvalues --    0.11354   0.12744   0.13773   0.14511   0.15112
 Alpha virt. eigenvalues --    0.15898   0.16292   0.16522   0.16720   0.16859

 Mulliken charges:
               1
     1  C   -0.025373
     2  C   -0.209749
     3  C   -0.134343
     4  C   -0.097879
     5  H    0.097860
     6  H    0.081814
     7  C    0.237787
     8  H    0.067244
     9  H    0.087633
    10  C    0.097799
    11  H    0.086823
    12  C   -0.034914
    13  H    0.065792
    14  H    0.073143
    15  H    0.075835
    16  N   -0.227204
    17  N   -0.191315
    18  C    0.279729
    19  C    0.334327
    20  O   -0.244238
    21  O   -0.297895
    22  O   -0.360523
    23  O   -0.368842
    24  C    0.132225
    25  H    0.056196
    26  H    0.055958
    27  H    0.046584
    28  C    0.125126
    29  H    0.058687
    30  H    0.065747
    31  H    0.065967
 Sum of Mulliken charges =   0.00000

 Dipole moment (field-independent basis, Debye):
    X=              4.0766    Y=              6.0888    Z=             -6.0347  Tot=              9.4926
 Quadrupole moment (field-independent basis, Debye-Ang):
   XX=            -87.1217   YY=            -88.7468   ZZ=           -103.5619
   XY=             -2.0960   XZ=              4.4408   YZ=              4.3324

 Normal termination of Gaussian 09 at Mon Sep  7 14:33:32 2020.
