 Gaussian 09, Revision D.01,
 Gaussian 09:  ES64L-G09RevD.01 24-Apr-2013

 ----------------------------------------------------------------------
 # opt freq scrf=(cpcm,solvent=toluene) geom=connectivity def2svp m062x
  empiricaldispersion=gd3
 ----------------------------------------------------------------------

 -------------------
 Title Card Required
 -------------------
 Symbolic Z-matrix:
 Charge =  0 Multiplicity = 1

 SCF Done:  E(RM062X) =  -565.719154848     A.U. after   13 cycles
 SCF Done:  E(RM062X) =  -565.730831115     A.U. after   13 cycles
 SCF Done:  E(RM062X) =  -565.730932457     A.U. after   12 cycles
 SCF Done:  E(RM062X) =  -565.729943882     A.U. after   12 cycles
 SCF Done:  E(RM062X) =  -565.731637067     A.U. after   10 cycles
 SCF Done:  E(RM062X) =  -565.731914825     A.U. after   12 cycles
 SCF Done:  E(RM062X) =  -565.731932095     A.U. after   11 cycles
 SCF Done:  E(RM062X) =  -565.731946741     A.U. after   12 cycles
 SCF Done:  E(RM062X) =  -565.731939204     A.U. after   10 cycles
 SCF Done:  E(RM062X) =  -565.731952299     A.U. after   11 cycles
 SCF Done:  E(RM062X) =  -565.731953475     A.U. after   10 cycles
 SCF Done:  E(RM062X) =  -565.731952643     A.U. after   10 cycles
 Optimization completed.
    -- Stationary point found.
 Normal termination of Gaussian 09 at Mon Sep  7 11:42:07 2020.

 -------------------------------------------------------------------
 #N Geom=AllCheck Guess=TCheck SCRF=Check GenChk RM062X/def2SVP Freq
 -------------------------------------------------------------------

 Structure from the checkpoint file:  "m062x_dmad_cycloaddition_PM6_toluene.chk"
 -------------------
 Title Card Required
 -------------------
 Charge =  0 Multiplicity = 1

                         Standard orientation:
 ---------------------------------------------------------------------
 Center     Atomic      Atomic             Coordinates (Angstroms)
 Number     Number       Type             X           Y           Z
 ---------------------------------------------------------------------
      1          7           0        0.309422   -0.299659    0.437844
      2          7           0       -0.309404    0.299678   -0.437717
      3          6           0        1.703657   -0.483239    0.114613
      4          6           0       -1.703642    0.483225   -0.114495
      5          8           0       -2.158277    1.568657    0.082131
      6          8           0        2.158312   -1.568696   -0.081836
      7          8           0       -2.349981   -0.661264   -0.143994
      8          8           0        2.349960    0.661277    0.143812
      9          6           0        3.758512    0.583778   -0.085250
     10          1           0        4.140586    1.601194    0.030648
     11          1           0        4.221171   -0.091477    0.645516
     12          1           0        3.952433    0.210970   -1.098806
     13          6           0       -3.758548   -0.583760    0.084980
     14          1           0       -4.140670   -1.601117   -0.031278
     15          1           0       -3.952531   -0.211273    1.098643
     16          1           0       -4.221108    0.091761   -0.645602
 ---------------------------------------------------------------------

 SCF Done:  E(RM062X) =  -565.731952643     A.U. after    1 cycles

 The electronic state is 1-A.
 Alpha  occ. eigenvalues --  -19.70402 -19.70401 -19.64909 -19.64906 -14.85638
 Alpha  occ. eigenvalues --  -14.85560 -10.72807 -10.72806 -10.62245 -10.62245
 Alpha  occ. eigenvalues --   -1.27223  -1.25916  -1.17962  -1.16164  -1.15833
 Alpha  occ. eigenvalues --   -0.91019  -0.84025  -0.80133  -0.69601  -0.66224
 Alpha  occ. eigenvalues --   -0.65417  -0.62012  -0.59446  -0.58954  -0.58219
 Alpha  occ. eigenvalues --   -0.55492  -0.52874  -0.52619  -0.49413  -0.48765
 Alpha  occ. eigenvalues --   -0.47042  -0.45365  -0.45240  -0.40704  -0.39781
 Alpha  occ. eigenvalues --   -0.39777  -0.39646  -0.32900
 Alpha virt. eigenvalues --   -0.04560   0.05268   0.05386   0.11143   0.11184
 Alpha virt. eigenvalues --    0.15677   0.15753   0.16412   0.16503   0.17482
 Alpha virt. eigenvalues --    0.17598   0.24704   0.24889   0.32656   0.36185

 Mulliken charges:
               1
     1  N   -0.123677
     2  N   -0.123668
     3  C    0.350027
     4  C    0.350026
     5  O   -0.243069
     6  O   -0.243066
     7  O   -0.328222
     8  O   -0.328221
     9  C    0.118551
    10  H    0.078922
    11  H    0.073036
    12  H    0.074427
    13  C    0.118551
    14  H    0.078921
    15  H    0.074428
    16  H    0.073035
 Sum of Mulliken charges =   0.00000

 Dipole moment (field-independent basis, Debye):
    X=              0.0000    Y=              0.0001    Z=             -0.0005  Tot=              0.0005
 Quadrupole moment (field-independent basis, Debye-Ang):
   XX=            -32.0956   YY=            -65.2504   ZZ=            -55.7258
   XY=             11.8495   XZ=              0.1715   YZ=             -0.3746

  Exact polarizability:  95.070  -3.435  68.074   1.834  -0.838  48.712
 Approx polarizability:  79.304  -8.837  82.364   2.424  -0.741  54.908

 ******    1 imaginary frequencies (negative Signs) ******

                      1                      2                      3
                      A                      A                      A
 Frequencies --     -6.2855                74.4010                78.2896
 Red. masses --      4.1897                 4.4874                 7.0436
 Frc consts  --      0.0001                 0.0146                 0.0254
 IR Inten    --      6.9166                 5.1669                 0.0000

                      4                      5                      6
                      A                      A                      A
 Frequencies --     93.5913               106.1757               107.7818
 Red. masses --      3.6404                 1.1014                 1.2205
 Frc consts  --      0.0188                 0.0073                 0.0084
 IR Inten    --      2.4668                 0.0009                 0.5829

                      7                      8                      9
                      A                      A                      A
 Frequencies --    146.3194               249.6887               261.4811
 Red. masses --      3.8974                 6.7671                 7.1394
 Frc consts  --      0.0492                 0.2486                 0.2876
 IR Inten    --      0.0000                 0.0000                13.7635

                     10                     11                     12
                      A                      A                      A
 Frequencies --    303.3998               304.0564               458.8663
 Red. masses --      4.2047                 3.9997                11.3104
 Frc consts  --      0.2280                 0.2179                 1.4031
 IR Inten    --     44.6707                 0.0080                 0.0000

                     13                     14                     15
                      A                      A                      A
 Frequencies --    599.5129               647.2057               678.4452
 Red. masses --      8.7804                 9.9326                 8.8557
 Frc consts  --      1.8593                 2.4513                 2.4016
 IR Inten    --      3.8930                 0.0000                21.0242

                     16                     17                     18
                      A                      A                      A
 Frequencies --    845.2262               872.0912               950.6898
 Red. masses --     11.6987                 6.0210                 5.1786
 Frc consts  --      4.9242                 2.6980                 2.7576
 IR Inten    --     59.1884                 0.0000                86.1048

                     19                     20                     21
                      A                      A                      A
 Frequencies --    979.2365              1106.9417              1107.0869
 Red. masses --      7.0697                 8.2794                 7.8276
 Frc consts  --      3.9942                 5.9772                 5.6525
 IR Inten    --      0.0000                 0.0211                44.5998

                     22                     23                     24
                      A                      A                      A
 Frequencies --   1182.7892              1182.9299              1212.6457
 Red. masses --      1.2890                 1.2890                 1.5800
 Frc consts  --      1.0624                 1.0627                 1.3689
 IR Inten    --      3.1707                 0.0051                 0.0029

                     25                     26                     27
                      A                      A                      A
 Frequencies --   1213.5857              1340.0647              1360.5780
 Red. masses --      1.5993                 4.9827                 4.6449
 Frc consts  --      1.3878                 5.2719                 5.0661
 IR Inten    --     18.5775              1360.7945                 0.0000

                     28                     29                     30
                      A                      A                      A
 Frequencies --   1459.9933              1460.6846              1469.6457
 Red. masses --      1.0819                 1.0830                 1.1088
 Frc consts  --      1.3587                 1.3615                 1.4110
 IR Inten    --     75.9156                 0.0079                90.3710

                     31                     32                     33
                      A                      A                      A
 Frequencies --   1470.0928              1480.1168              1480.8360
 Red. masses --      1.1306                 1.1857                 1.1862
 Frc consts  --      1.4397                 1.5304                 1.5325
 IR Inten    --      0.1046                 0.0002                60.2428

                     34                     35                     36
                      A                      A                      A
 Frequencies --   1795.9195              1927.9918              1934.0512
 Red. masses --     13.9832                12.4225                12.4115
 Frc consts  --     26.5723                27.2063                27.3533
 IR Inten    --      0.0000                 0.0007               987.6635

                     37                     38                     39
                      A                      A                      A
 Frequencies --   3088.4823              3088.6170              3190.4669
 Red. masses --      1.0310                 1.0310                 1.1093
 Frc consts  --      5.7940                 5.7948                 6.6527
 IR Inten    --     42.0048                 0.0245                 0.8589

                     40                     41                     42
                      A                      A                      A
 Frequencies --   3190.4830              3227.6360              3227.6446
 Red. masses --      1.1093                 1.1096                 1.1096
 Frc consts  --      6.6527                 6.8108                 6.8109
 IR Inten    --     18.2471                 4.8405                 3.1509

 - Thermochemistry -
 -------------------
 Temperature   298.150 Kelvin.  Pressure   1.00000 Atm.
 Atom     1 has atomic number  7 and mass  14.00307

 Molecular mass:   146.03276 amu.
 Principal axes and moments of inertia in atomic units:
                           1         2         3
     Eigenvalues --   442.836653032.873283404.31896
           X            0.99981   0.01932  -0.00365
           Y           -0.01934   0.99980  -0.00506
           Z            0.00355   0.00513   0.99998
 This molecule is an asymmetric top.
 Rotational symmetry number  1.
 Warning -- assumption of classical behavior for rotation
           may cause significant error
 Rotational temperatures (Kelvin)      0.19559     0.02856     0.02544
 Rotational constants (GHZ):           4.07541     0.59506     0.53013
    1 imaginary frequencies ignored.
 Zero-point vibrational energy     304783.0 (Joules/Mol)
                                   72.84489 (Kcal/Mol)
 Warning -- explicit consideration of  12 degrees of freedom as
           vibrations may cause significant error
 Vibrational temperatures:    107.05   112.64   134.66   152.76   155.07
          (Kelvin)            210.52   359.25   376.21   436.52   437.47
                              660.21   862.56   931.18   976.13  1216.09
                             1254.74  1367.83  1408.90  1592.64  1592.85
                             1701.77  1701.97  1744.72  1746.08  1928.05
                             1957.57  2100.60  2101.60  2114.49  2115.13
                             2129.56  2130.59  2583.92  2773.95  2782.66
                             4443.63  4443.83  4590.36  4590.39  4643.84
                             4643.85

 Zero-point correction=                           0.116086 (Hartree/Particle)
 Thermal correction to Energy=                    0.126164
 Thermal correction to Enthalpy=                  0.127108
 Thermal correction to Gibbs Free Energy=         0.079245
 Sum of electronic and zero-point Energies=           -565.615867
 Sum of electronic and thermal Energies=              -565.605789
 Sum of electronic and thermal Enthalpies=            -565.604845
 Sum of electronic and thermal Free Energies=         -565.652708

                     E (Thermal)             CV                S
                      KCal/Mol        Cal/Mol-Kelvin    Cal/Mol-Kelvin
 Total                   79.169             32.791            100.737
 Electronic               0.000              0.000              0.000
 Translational            0.889              2.981             40.847
 Rotational               0.889              2.981             29.904
 Vibrational             77.391             26.830             29.986
 Vibration     1          0.599              1.966              4.033
 Vibration     2          0.600              1.964              3.933
 Vibration     3          0.603              1.954              3.584
 Vibration     4          0.605              1.944              3.338
 Vibration     5          0.606              1.943              3.308
 Vibration     6          0.617              1.907              2.720
 Vibration     7          0.662              1.763              1.733
 Vibration     8          0.669              1.743              1.652
 Vibration     9          0.695              1.667              1.398
 Vibration    10          0.695              1.666              1.394
 Vibration    11          0.817              1.341              0.769
 Vibration    12          0.958              1.033              0.450

 Normal termination of Gaussian 09 at Mon Sep  7 11:44:18 2020.
