 Gaussian 09, Revision D.01,
 Gaussian 09:  ES64L-G09RevD.01 24-Apr-2013

 ----------------------------------------------------------------------
 # opt freq scrf=(cpcm,solvent=toluene) geom=connectivity def2svp empir
 icaldispersion=gd3 m062x
 ----------------------------------------------------------------------

 -------------------
 Title Card Required
 -------------------
 Symbolic Z-matrix:
 Charge =  0 Multiplicity = 3

 SCF Done:  E(UM062X) =  -836.899527820     A.U. after   18 cycles
 SCF Done:  E(UM062X) =  -836.899769090     A.U. after   12 cycles
 SCF Done:  E(UM062X) =  -836.899773935     A.U. after   11 cycles
 SCF Done:  E(UM062X) =  -836.899779172     A.U. after   11 cycles
 SCF Done:  E(UM062X) =  -836.899772921     A.U. after   11 cycles
 SCF Done:  E(UM062X) =  -836.899783155     A.U. after   10 cycles
 SCF Done:  E(UM062X) =  -836.899791614     A.U. after   12 cycles
 SCF Done:  E(UM062X) =  -836.875221053     A.U. after   16 cycles
 SCF Done:  E(UM062X) =  -836.899794838     A.U. after    7 cycles
 SCF Done:  E(UM062X) =  -836.894116795     A.U. after   16 cycles
 SCF Done:  E(UM062X) =  -836.871785914     A.U. after   16 cycles
 SCF Done:  E(UM062X) =  -836.900211409     A.U. after    7 cycles
 SCF Done:  E(UM062X) =  -836.900189967     A.U. after   14 cycles
 SCF Done:  E(UM062X) =  -836.900308835     A.U. after   13 cycles
 SCF Done:  E(UM062X) =  -836.900323036     A.U. after   12 cycles
 SCF Done:  E(UM062X) =  -836.900328034     A.U. after   12 cycles
 SCF Done:  E(UM062X) =  -836.900329025     A.U. after   11 cycles
 SCF Done:  E(UM062X) =  -836.900329847     A.U. after   10 cycles
 SCF Done:  E(UM062X) =  -836.900329572     A.U. after    8 cycles
 Optimization completed.
    -- Stationary point found.
 Normal termination of Gaussian 09 at Sun Jul 11 19:25:51 2021.

 -------------------------------------------------------------------
 #N Geom=AllCheck Guess=TCheck SCRF=Check GenChk UM062X/def2SVP Freq
 -------------------------------------------------------------------

 Structure from the checkpoint file:  "product_cycloaddition_m062x_toluene_2.chk"
 -------------------
 Title Card Required
 -------------------
 Charge =  0 Multiplicity = 3

                         Standard orientation:
 ---------------------------------------------------------------------
 Center     Atomic      Atomic             Coordinates (Angstroms)
 Number     Number       Type             X           Y           Z
 ---------------------------------------------------------------------
      1          6           0        0.351069    0.715809   -0.571509
      2          6           0        0.691118    1.876900    0.410363
      3          6           0       -1.606556    1.737294    0.462483
      4          6           0       -1.106662    1.081090   -0.794054
      5          1           0        0.942105    0.785550   -1.490298
      6          1           0       -1.750778    0.546171   -1.486256
      7          6           0       -0.448641    1.744021    1.455191
      8          1           0       -0.477416    2.610987    2.130107
      9          1           0       -0.396301    0.821691    2.052867
     10          6           0        0.212479    3.048003   -0.406476
     11          1           0        0.548873    4.078699   -0.308350
     12          6           0       -1.160430    2.601019   -0.716210
     13          1           0       -1.876682    3.159791   -1.315178
     14          1           0        1.719701    1.891211    0.782860
     15          1           0       -2.650773    1.662317    0.762888
     16          7           0       -0.199232   -1.285861    0.801992
     17          7           0        0.624370   -0.612490    0.025615
     18          6           0       -1.550978   -1.363508    0.489333
     19          6           0        1.973483   -1.043157    0.124961
     20          8           0        2.319458   -2.038247    0.688001
     21          8           0       -2.428322   -1.237454    1.302017
     22          8           0        2.780813   -0.198281   -0.510179
     23          8           0       -1.750736   -1.741939   -0.781208
     24          6           0       -3.109073   -1.945574   -1.147017
     25          1           0       -3.098845   -2.291736   -2.184867
     26          1           0       -3.574171   -2.695975   -0.494874
     27          1           0       -3.673628   -1.005705   -1.061972
     28          6           0        4.159314   -0.557244   -0.510788
     29          1           0        4.674488    0.221601   -1.079594
     30          1           0        4.540285   -0.599277    0.517512
     31          1           0        4.296736   -1.537410   -0.984820
 ---------------------------------------------------------------------

 SCF Done:  E(UM062X) =  -836.900329572     A.U. after    1 cycles

 The electronic state is 3-A.
 Alpha  occ. eigenvalues --  -19.69610 -19.68093 -19.63303 -19.62028 -14.86553
 Alpha  occ. eigenvalues --  -14.80686 -10.72494 -10.70947 -10.61919 -10.61405
 Alpha  occ. eigenvalues --  -10.61126 -10.57360 -10.57210 -10.57079 -10.57048
 Alpha  occ. eigenvalues --  -10.56851 -10.55953  -1.25737  -1.23725  -1.16050
 Alpha  occ. eigenvalues --   -1.13760  -1.13095  -1.03963  -0.94445  -0.85863
 Alpha  occ. eigenvalues --   -0.83449  -0.83000  -0.80398  -0.79044  -0.69875
 Alpha  occ. eigenvalues --   -0.68452  -0.65149  -0.64568  -0.64079  -0.62794
 Alpha  occ. eigenvalues --   -0.62570  -0.60227  -0.58869  -0.57374  -0.56823
 Alpha  occ. eigenvalues --   -0.56775  -0.54739  -0.52298  -0.51616  -0.50901
 Alpha  occ. eigenvalues --   -0.50128  -0.48755  -0.47196  -0.45976  -0.45199
 Alpha  occ. eigenvalues --   -0.44359  -0.43837  -0.43453  -0.41896  -0.41388
 Alpha  occ. eigenvalues --   -0.39197  -0.38933  -0.38087  -0.37930  -0.36357
 Alpha  occ. eigenvalues --   -0.35700  -0.34901  -0.28363  -0.24751
 Alpha virt. eigenvalues --    0.06413   0.07355   0.09107   0.10223   0.12458
 Alpha virt. eigenvalues --    0.13613   0.14583   0.15229   0.15285   0.15985
 Alpha virt. eigenvalues --    0.16114   0.16727   0.16991   0.17399   0.17686

  Beta  occ. eigenvalues --  -19.69575 -19.68023 -19.63194 -19.61943 -14.86106
  Beta  occ. eigenvalues --  -14.79782 -10.72519 -10.70975 -10.61920 -10.61372
  Beta  occ. eigenvalues --  -10.61121 -10.57307 -10.57237 -10.57130 -10.56967
  Beta  occ. eigenvalues --  -10.56096 -10.55884  -1.25414  -1.23396  -1.15320
  Beta  occ. eigenvalues --   -1.13061  -1.12281  -1.03229  -0.92637  -0.85310
  Beta  occ. eigenvalues --   -0.83161  -0.82448  -0.78775  -0.78213  -0.69030
  Beta  occ. eigenvalues --   -0.67636  -0.64881  -0.64025  -0.63604  -0.62360
  Beta  occ. eigenvalues --   -0.61621  -0.59166  -0.58235  -0.56713  -0.56593
  Beta  occ. eigenvalues --   -0.56275  -0.53817  -0.52019  -0.51172  -0.49766
  Beta  occ. eigenvalues --   -0.49487  -0.47860  -0.46383  -0.45086  -0.44221
  Beta  occ. eigenvalues --   -0.43994  -0.43616  -0.42335  -0.41088  -0.39411
  Beta  occ. eigenvalues --   -0.38423  -0.38129  -0.37755  -0.37052  -0.35379
  Beta  occ. eigenvalues --   -0.34662  -0.33471
  Beta virt. eigenvalues --   -0.06602  -0.00949   0.07062   0.08498   0.09611
  Beta virt. eigenvalues --    0.10275   0.12484   0.13593   0.14628   0.15239
  Beta virt. eigenvalues --    0.15365   0.16071   0.16335   0.16928   0.17212

 Mulliken charges and spin densities:
               1          2
     1  C    0.179968   0.020246
     2  C   -0.253820  -0.064595
     3  C   -0.158296   0.087137
     4  C   -0.104826   0.039716
     5  H    0.061623   0.000584
     6  H    0.054474  -0.001268
     7  C    0.163816   0.039885
     8  H    0.052802  -0.000332
     9  H    0.062006  -0.002494
    10  C    0.073981   1.046955
    11  H    0.041490  -0.038293
    12  C   -0.057413  -0.105357
    13  H    0.049079   0.001514
    14  H    0.050129  -0.000242
    15  H    0.057098  -0.001268
    16  N   -0.137224   0.643776
    17  N   -0.233530   0.229123
    18  C    0.292292  -0.012739
    19  C    0.394632  -0.004593
    20  O   -0.248406   0.054116
    21  O   -0.271823   0.034650
    22  O   -0.367603   0.011707
    23  O   -0.357132   0.017140
    24  C    0.122584   0.002666
    25  H    0.068347   0.001068
    26  H    0.068682   0.000413
    27  H    0.056648   0.000475
    28  C    0.131850  -0.001707
    29  H    0.071704   0.000021
    30  H    0.068427   0.000776
    31  H    0.068442   0.000919
 Sum of Mulliken charges =   0.00000   2.00000

 Dipole moment (field-independent basis, Debye):
    X=              1.2711    Y=              3.8630    Z=             -4.2413  Tot=              5.8760
 Quadrupole moment (field-independent basis, Debye-Ang):
   XX=            -81.5494   YY=           -100.9216   ZZ=           -101.3087
   XY=              3.8876   XZ=              5.3378   YZ=              8.8331

  Exact polarizability: 174.361   6.365 147.822  -3.795  -5.662 127.216
 Approx polarizability: 164.566   3.340 151.761  -8.121  -9.373 145.416

                      1                      2                      3
                      A                      A                      A
 Frequencies --     37.6517                65.4643                70.8649
 Red. masses --      4.3522                 3.8469                 6.0967
 Frc consts  --      0.0036                 0.0097                 0.0180
 IR Inten    --      1.3768                 2.0601                 1.4491

                      4                      5                      6
                      A                      A                      A
 Frequencies --     94.9951               119.6842               128.3720
 Red. masses --      4.4196                 4.8243                 4.3289
 Frc consts  --      0.0235                 0.0407                 0.0420
 IR Inten    --      5.2821                 0.4977                 0.6117

                      7                      8                      9
                      A                      A                      A
 Frequencies --    148.5147               177.7006               180.5855
 Red. masses --      3.5510                 1.0968                 2.0684
 Frc consts  --      0.0461                 0.0204                 0.0397
 IR Inten    --      1.6342                 0.4477                 4.2566

                     10                     11                     12
                      A                      A                      A
 Frequencies --    191.0972               228.5805               240.7921
 Red. masses --      1.6381                 4.8161                 4.4832
 Frc consts  --      0.0352                 0.1483                 0.1532
 IR Inten    --      3.1317                 1.1076                 6.1032

                     13                     14                     15
                      A                      A                      A
 Frequencies --    316.9262               324.5953               345.6088
 Red. masses --      3.8331                 5.2502                 3.9582
 Frc consts  --      0.2268                 0.3259                 0.2786
 IR Inten    --     18.4845                 4.5133                33.1071

                     16                     17                     18
                      A                      A                      A
 Frequencies --    356.5746               369.9168               427.6618
 Red. masses --      2.3513                 2.1311                 5.2862
 Frc consts  --      0.1761                 0.1718                 0.5696
 IR Inten    --      3.9763                 7.3759                 0.5548

                     19                     20                     21
                      A                      A                      A
 Frequencies --    474.1426               483.3235               608.9578
 Red. masses --      3.4929                 3.6571                 7.6059
 Frc consts  --      0.4626                 0.5033                 1.6618
 IR Inten    --      3.3222                 4.2140                17.4757

                     22                     23                     24
                      A                      A                      A
 Frequencies --    620.8105               686.0573               690.7530
 Red. masses --      3.8101                 5.7028                 4.8832
 Frc consts  --      0.8652                 1.5815                 1.3728
 IR Inten    --     18.7227                 1.0794                 0.0986

                     25                     26                     27
                      A                      A                      A
 Frequencies --    706.3436               773.3966               784.9142
 Red. masses --      5.9936                 6.7654                 6.9467
 Frc consts  --      1.7619                 2.3842                 2.5216
 IR Inten    --      1.5059                11.4497                18.4835

                     28                     29                     30
                      A                      A                      A
 Frequencies --    806.8131               820.1377               835.4632
 Red. masses --      4.1198                 1.9044                 5.2239
 Frc consts  --      1.5801                 0.7547                 2.1483
 IR Inten    --     28.5050                10.1761                87.7308

                     31                     32                     33
                      A                      A                      A
 Frequencies --    852.3400               894.2211               908.4799
 Red. masses --      1.6096                 3.6780                 2.8755
 Frc consts  --      0.6890                 1.7328                 1.3983
 IR Inten    --     18.4816                22.1273                33.9413

                     34                     35                     36
                      A                      A                      A
 Frequencies --    913.6703               938.3152               945.8914
 Red. masses --      2.1321                 1.9936                 1.8099
 Frc consts  --      1.0486                 1.0342                 0.9541
 IR Inten    --      1.7609                 1.3785                 3.6344

                     37                     38                     39
                      A                      A                      A
 Frequencies --    963.2518               979.9723              1004.9316
 Red. masses --      3.0665                 1.2820                 2.4369
 Frc consts  --      1.6764                 0.7254                 1.4500
 IR Inten    --     10.7497                 2.7905                 4.5362

                     40                     41                     42
                      A                      A                      A
 Frequencies --   1011.5686              1041.9735              1054.4811
 Red. masses --      2.8023                 1.7209                 1.8846
 Frc consts  --      1.6895                 1.1009                 1.2347
 IR Inten    --      1.4440                 2.1265                16.1738

                     43                     44                     45
                      A                      A                      A
 Frequencies --   1058.5705              1070.7069              1089.7886
 Red. masses --      1.2282                 1.5531                 2.9979
 Frc consts  --      0.8109                 1.0490                 2.0977
 IR Inten    --      6.1033                21.6054                 7.2977

                     46                     47                     48
                      A                      A                      A
 Frequencies --   1139.3776              1147.6806              1175.0487
 Red. masses --      1.3093                 5.6636                 2.7169
 Frc consts  --      1.0014                 4.3953                 2.2102
 IR Inten    --      0.1619                53.2435                11.1613

                     49                     50                     51
                      A                      A                      A
 Frequencies --   1178.3697              1186.9909              1187.4960
 Red. masses --      1.2965                 1.4443                 1.6648
 Frc consts  --      1.0607                 1.1989                 1.3831
 IR Inten    --      2.6890                 1.8948                 0.9236

                     52                     53                     54
                      A                      A                      A
 Frequencies --   1214.1504              1233.4274              1236.5664
 Red. masses --      1.7173                 1.6212                 1.6509
 Frc consts  --      1.4916                 1.4531                 1.4873
 IR Inten    --     15.2824                 7.8508                20.9207

                     55                     56                     57
                      A                      A                      A
 Frequencies --   1252.3065              1260.6730              1275.2011
 Red. masses --      1.4690                 4.9928                 1.9973
 Frc consts  --      1.3573                 4.6752                 1.9136
 IR Inten    --     44.8933               807.8723                20.9770

                     58                     59                     60
                      A                      A                      A
 Frequencies --   1299.9334              1316.4576              1336.3148
 Red. masses --      1.9524                 2.6745                 2.6987
 Frc consts  --      1.9439                 2.7309                 2.8393
 IR Inten    --    127.1655               341.1362               391.6073

                     61                     62                     63
                      A                      A                      A
 Frequencies --   1344.5311              1380.9375              1400.5618
 Red. masses --      2.7388                 1.7741                 3.4021
 Frc consts  --      2.9171                 1.9933                 3.9319
 IR Inten    --    203.2510                38.2012                 4.8051

                     64                     65                     66
                      A                      A                      A
 Frequencies --   1455.1618              1462.9093              1467.7427
 Red. masses --      1.1316                 1.1077                 1.0426
 Frc consts  --      1.4118                 1.3968                 1.3233
 IR Inten    --     26.7788                16.7695                14.8638

                     67                     68                     69
                      A                      A                      A
 Frequencies --   1473.2963              1475.1417              1481.4709
 Red. masses --      1.1155                 1.1209                 1.0706
 Frc consts  --      1.4266                 1.4371                 1.3844
 IR Inten    --     46.2188                19.6563                14.2480

                     70                     71                     72
                      A                      A                      A
 Frequencies --   1484.5501              1542.0557              1866.5709
 Red. masses --      1.1539                 7.2374                12.3624
 Frc consts  --      1.4983                10.1399                25.3770
 IR Inten    --     33.6005                50.6155               497.3036

                     73                     74                     75
                      A                      A                      A
 Frequencies --   1916.5994              3071.8804              3084.9428
 Red. masses --     12.3662                 1.0328                 1.0607
 Frc consts  --     26.7638                 5.7424                 5.9478
 IR Inten    --    504.5380                29.2181                19.6537

                     76                     77                     78
                      A                      A                      A
 Frequencies --   3088.2324              3147.6432              3167.9972
 Red. masses --      1.0314                 1.1094                 1.1066
 Frc consts  --      5.7958                 6.4761                 6.5433
 IR Inten    --     30.4238                13.1700                18.5125

                     79                     80                     81
                      A                      A                      A
 Frequencies --   3173.1810              3181.4089              3188.1329
 Red. masses --      1.0880                 1.0920                 1.1087
 Frc consts  --      6.4548                 6.5120                 6.6397
 IR Inten    --      3.1331                 8.6256                10.8039

                     82                     83                     84
                      A                      A                      A
 Frequencies --   3210.8038              3224.1679              3230.3053
 Red. masses --      1.1089                 1.1093                 1.0941
 Frc consts  --      6.7352                 6.7942                 6.7269
 IR Inten    --      8.0447                 6.2676                 0.2825

                     85                     86                     87
                      A                      A                      A
 Frequencies --   3238.7381              3250.1428              3262.1143
 Red. masses --      1.0930                 1.0967                 1.0956
 Frc consts  --      6.7549                 6.8253                 6.8692
 IR Inten    --      3.2104                 7.0885                 1.2161

 - Thermochemistry -
 -------------------
 Temperature   298.150 Kelvin.  Pressure   1.00000 Atm.
 Atom     1 has atomic number  6 and mass  12.00000

 Molecular mass:   238.09536 amu.
 Principal axes and moments of inertia in atomic units:
                           1         2         3
     Eigenvalues --  2830.780633928.475995660.73660
           X            0.99982   0.01724   0.00830
           Y           -0.01742   0.99960   0.02226
           Z           -0.00791  -0.02240   0.99972
 This molecule is an asymmetric top.
 Rotational symmetry number  1.
 Warning -- assumption of classical behavior for rotation
           may cause significant error
 Rotational temperatures (Kelvin)      0.03060     0.02205     0.01530
 Rotational constants (GHZ):           0.63754     0.45940     0.31882
 Zero-point vibrational energy     655290.9 (Joules/Mol)
                                  156.61827 (Kcal/Mol)
 Warning -- explicit consideration of  21 degrees of freedom as
           vibrations may cause significant error
 Vibrational temperatures:     54.17    94.19   101.96   136.68   172.20
          (Kelvin)            184.70   213.68   255.67   259.82   274.95
                              328.88   346.45   455.99   467.02   497.25
                              513.03   532.23   615.31   682.18   695.39
                              876.15   893.21   987.08   993.84  1016.27
                             1112.74  1129.32  1160.82  1179.99  1202.04
                             1226.33  1286.58  1307.10  1314.57  1350.02
                             1360.93  1385.90  1409.96  1445.87  1455.42
                             1499.17  1517.16  1523.04  1540.51  1567.96
                             1639.31  1651.25  1690.63  1695.41  1707.81
                             1708.54  1746.89  1774.62  1779.14  1801.79
                             1813.83  1834.73  1870.31  1894.09  1922.66
                             1934.48  1986.86  2015.09  2093.65  2104.80
                             2111.75  2119.74  2122.40  2131.50  2135.93
                             2218.67  2685.58  2757.56  4419.75  4438.54
                             4443.27  4528.75  4558.04  4565.49  4577.33
                             4587.01  4619.62  4638.85  4647.68  4659.82
                             4676.22  4693.45

 Zero-point correction=                           0.249587 (Hartree/Particle)
 Thermal correction to Energy=                    0.264987
 Thermal correction to Enthalpy=                  0.265932
 Thermal correction to Gibbs Free Energy=         0.205536
 Sum of electronic and zero-point Energies=           -836.650742
 Sum of electronic and thermal Energies=              -836.635342
 Sum of electronic and thermal Enthalpies=            -836.634398
 Sum of electronic and thermal Free Energies=         -836.694794

                     E (Thermal)             CV                S
                      KCal/Mol        Cal/Mol-Kelvin    Cal/Mol-Kelvin
 Total                  166.282             58.385            127.114
 Electronic               0.000              0.000              2.183
 Translational            0.889              2.981             42.304
 Rotational               0.889              2.981             32.509
 Vibrational            164.505             52.423             50.117
 Vibration     1          0.594              1.982              5.379
 Vibration     2          0.597              1.971              4.285
 Vibration     3          0.598              1.968              4.129
 Vibration     4          0.603              1.953              3.554
 Vibration     5          0.609              1.933              3.105
 Vibration     6          0.611              1.925              2.970
 Vibration     7          0.618              1.904              2.691
 Vibration     8          0.628              1.870              2.352
 Vibration     9          0.630              1.866              2.322
 Vibration    10          0.634              1.852              2.217
 Vibration    11          0.651              1.797              1.890
 Vibration    12          0.658              1.778              1.797
 Vibration    13          0.704              1.641              1.326
 Vibration    14          0.709              1.626              1.287
 Vibration    15          0.724              1.584              1.186
 Vibration    16          0.732              1.562              1.137
 Vibration    17          0.742              1.534              1.080
 Vibration    18          0.789              1.410              0.866
 Vibration    19          0.831              1.307              0.726
 Vibration    20          0.840              1.287              0.701
 Vibration    21          0.968              1.013              0.435

 Optimization completed.
    -- Stationary point found.
 Normal termination of Gaussian 09 at Sun Jul 11 19:58:43 2021.
