 Gaussian 09, Revision D.01,
 Gaussian 09:  ES64L-G09RevD.01 24-Apr-2013

 -----------------------------------------------------------------
 # opt freq scrf=(cpcm,solvent=nitromethane) pop=nbo def2svp m062x
 -----------------------------------------------------------------

 -------
 CH2NO2H
 -------
 Symbolic Z-matrix:
 Charge =  0 Multiplicity = 1

 SCF Done:  E(RM062X) =  -244.665780141     A.U. after   13 cycles
 SCF Done:  E(RM062X) =  -244.690106058     A.U. after   13 cycles
 SCF Done:  E(RM062X) =  -244.695757118     A.U. after   13 cycles
 SCF Done:  E(RM062X) =  -244.696065219     A.U. after   12 cycles
 SCF Done:  E(RM062X) =  -244.697181681     A.U. after   12 cycles
 SCF Done:  E(RM062X) =  -244.697532489     A.U. after   12 cycles
 SCF Done:  E(RM062X) =  -244.697765839     A.U. after   12 cycles
 SCF Done:  E(RM062X) =  -244.697816117     A.U. after   11 cycles
 SCF Done:  E(RM062X) =  -244.697811568     A.U. after   12 cycles
 SCF Done:  E(RM062X) =  -244.697835416     A.U. after    8 cycles
 SCF Done:  E(RM062X) =  -244.697842881     A.U. after   11 cycles
 Optimization completed.
    -- Stationary point found.
 Normal termination of Gaussian 09 at Wed Aug  4 14:49:49 2021.

 -------------------------------------------------------------------
 #N Geom=AllCheck Guess=TCheck SCRF=Check GenChk RM062X/def2SVP Freq
 -------------------------------------------------------------------

 Structure from the checkpoint file:  "CH2NO2H_opt.chk"
 -------
 CH2NO2H
 -------
 Charge =  0 Multiplicity = 1

                         Standard orientation:
 ---------------------------------------------------------------------
 Center     Atomic      Atomic             Coordinates (Angstroms)
 Number     Number       Type             X           Y           Z
 ---------------------------------------------------------------------
      1          7           0       -0.062400    0.091463   -0.000149
      2          8           0        0.428986    1.223557    0.000045
      3          8           0        0.840631   -0.946187    0.000323
      4          6           0       -1.306339   -0.264754   -0.000121
      5          1           0       -2.039598    0.535338    0.000850
      6          1           0       -1.537940   -1.324531   -0.000565
      7          1           0        1.695440   -0.481483   -0.001458
 ---------------------------------------------------------------------

 SCF Done:  E(RM062X) =  -244.697842881     A.U. after    1 cycles

 The electronic state is 1-A.
 Alpha  occ. eigenvalues --  -19.69898 -19.63091 -14.97326 -10.59845  -1.31870
 Alpha  occ. eigenvalues --   -1.14834  -0.96396  -0.72456  -0.63403  -0.60462
 Alpha  occ. eigenvalues --   -0.60188  -0.52553  -0.50170  -0.42027  -0.36735
 Alpha  occ. eigenvalues --   -0.30071
 Alpha virt. eigenvalues --    0.02030   0.10661   0.14118   0.15180   0.21172
 Alpha virt. eigenvalues --    0.26187   0.33866   0.46268   0.53203   0.59646
 Alpha virt. eigenvalues --    0.64421   0.65825   0.70253   0.71521   0.76062

 Mulliken charges:
               1
     1  N    0.217122
     2  O   -0.421213
     3  O   -0.203965
     4  C   -0.010722
     5  H    0.099160
     6  H    0.098974
     7  H    0.220645
 Sum of Mulliken charges =   0.00000

 Dipole moment (field-independent basis, Debye):
    X=             -0.7505    Y=             -1.9800    Z=             -0.0033  Tot=              2.1175
 Quadrupole moment (field-independent basis, Debye-Ang):
   XX=            -16.2283   YY=            -27.0715   ZZ=            -23.8384
   XY=             -0.9017   XZ=             -0.0080   YZ=              0.0034

  Exact polarizability:  49.871   7.652  34.795  -0.005   0.002  14.192
 Approx polarizability:  48.529  10.760  38.352  -0.002   0.001  14.895

 Summary of Natural Population Analysis:

                                       Natural Population
                Natural  -----------------------------------------------
    Atom  No    Charge         Core      Valence    Rydberg      Total
 -----------------------------------------------------------------------
      N    1    0.36903      1.99918     4.59546    0.03633     6.63097
      O    2   -0.55109      1.99977     6.53490    0.01642     8.55109
      O    3   -0.56034      1.99978     6.54669    0.01387     8.56034
      C    4   -0.21478      1.99923     4.19403    0.02152     6.21478
      H    5    0.22697      0.00000     0.77080    0.00223     0.77303
      H    6    0.22676      0.00000     0.77134    0.00190     0.77324
      H    7    0.50345      0.00000     0.48850    0.00805     0.49655
 =======================================================================
   * Total *    0.00000      7.99796    23.90173    0.10031    32.00000

                      1                      2                      3
                      A                      A                      A
 Frequencies --    325.2291               525.7773               615.5709
 Red. masses --      1.1108                 2.5871                 4.9458
 Frc consts  --      0.0692                 0.4214                 1.1042
 IR Inten    --    163.8867                 2.3805                32.1306

                      4                      5                      6
                      A                      A                      A
 Frequencies --    669.5293               713.3794               795.6065
 Red. masses --      1.3224                 2.0379                 1.6542
 Frc consts  --      0.3493                 0.6110                 0.6169
 IR Inten    --      9.2481                 0.0363               109.0995

                      7                      8                      9
                      A                      A                      A
 Frequencies --    922.5950              1112.3231              1328.9194
 Red. masses --      4.4859                 1.9486                 1.4792
 Frc consts  --      2.2497                 1.4204                 1.5391
 IR Inten    --    168.2790                66.1835               166.6848

                     10                     11                     12
                      A                      A                      A
 Frequencies --   1356.0323              1465.0553              1799.0325
 Red. masses --      1.9258                 1.6724                 5.1079
 Frc consts  --      2.0864                 2.1150                 9.7403
 IR Inten    --    195.3341                93.8442               487.1606

                     13                     14                     15
                      A                      A                      A
 Frequencies --   3224.1492              3376.9385              3773.0784
 Red. masses --      1.0523                 1.1312                 1.0663
 Frc consts  --      6.4448                 7.6002                 8.9438
 IR Inten    --     35.1877                15.3183               253.6259

 - Thermochemistry -
 -------------------
 Temperature   298.150 Kelvin.  Pressure   1.00000 Atm.
 Atom     1 has atomic number  7 and mass  14.00307

 Molecular mass:    61.01638 amu.
 Principal axes and moments of inertia in atomic units:
                           1         2         3
     Eigenvalues --   148.12239 157.86203 305.98439
           X            0.99816   0.06057  -0.00007
           Y           -0.06057   0.99816   0.00005
           Z            0.00008  -0.00004   1.00000
 This molecule is an asymmetric top.
 Rotational symmetry number  1.
 Rotational temperatures (Kelvin)      0.58474     0.54867     0.28307
 Rotational constants (GHZ):          12.18412    11.43240     5.89815
 Zero-point vibrational energy     131608.5 (Joules/Mol)
                                   31.45518 (Kcal/Mol)
 Warning -- explicit consideration of   3 degrees of freedom as
           vibrations may cause significant error
 Vibrational temperatures:    467.93   756.48   885.67   963.30  1026.39
          (Kelvin)           1144.70  1327.41  1600.38  1912.02  1951.03
                             2107.89  2588.40  4638.83  4858.66  5428.61

 Zero-point correction=                           0.050127 (Hartree/Particle)
 Thermal correction to Energy=                    0.054118
 Thermal correction to Enthalpy=                  0.055062
 Thermal correction to Gibbs Free Energy=         0.024117
 Sum of electronic and zero-point Energies=           -244.647716
 Sum of electronic and thermal Energies=              -244.643725
 Sum of electronic and thermal Enthalpies=            -244.642780
 Sum of electronic and thermal Free Energies=         -244.673726

                     E (Thermal)             CV                S
                      KCal/Mol        Cal/Mol-Kelvin    Cal/Mol-Kelvin
 Total                   33.960             13.236             65.130
 Electronic               0.000              0.000              0.000
 Translational            0.889              2.981             38.245
 Rotational               0.889              2.981             23.485
 Vibrational             32.182              7.274              3.400
 Vibration     1          0.709              1.625              1.284
 Vibration     2          0.881              1.193              0.597
 Vibration     3          0.975              0.999              0.424

 Optimization completed.
    -- Stationary point found.
 Normal termination of Gaussian 09 at Wed Aug  4 14:50:11 2021.
