 Gaussian 09, Revision D.01,
 Gaussian 09:  ES64L-G09RevD.01 24-Apr-2013

 ---------------------------------------------------------------
 # opt=tight freq scrf=(cpcm,solvent=nitromethane) def2svp m062x
 ---------------------------------------------------------------

 ---
 H2O
 ---
 Symbolic Z-matrix:
 Charge =  0 Multiplicity = 1

 SCF Done:  E(RM062X) =  -76.3290330004     A.U. after    9 cycles
 SCF Done:  E(RM062X) =  -76.3300082795     A.U. after    8 cycles
 SCF Done:  E(RM062X) =  -76.3300362852     A.U. after    7 cycles
 SCF Done:  E(RM062X) =  -76.3300362923     A.U. after    6 cycles
 Optimization completed.
    -- Stationary point found.
 Normal termination of Gaussian 09 at Fri Oct 23 19:58:10 2020.

 -------------------------------------------------------------------
 #N Geom=AllCheck Guess=TCheck SCRF=Check GenChk RM062X/def2SVP Freq
 -------------------------------------------------------------------

 Structure from the checkpoint file:  "H2O_opt.chk"
 ---
 H2O
 ---
 Charge =  0 Multiplicity = 1

                         Standard orientation:
 ---------------------------------------------------------------------
 Center     Atomic      Atomic             Coordinates (Angstroms)
 Number     Number       Type             X           Y           Z
 ---------------------------------------------------------------------
      1          8           0        0.000000    0.000000    0.120301
      2          1           0        0.000000    0.753866   -0.481204
      3          1           0        0.000000   -0.753866   -0.481204
 ---------------------------------------------------------------------

 SCF Done:  E(RM062X) =  -76.3300362923     A.U. after    1 cycles

 The electronic state is 1-A1.
 Alpha  occ. eigenvalues --  -19.61402  -1.09476  -0.58308  -0.45518  -0.38026
 Alpha virt. eigenvalues --    0.10030   0.17889   0.61993   0.69558   0.98276
 Alpha virt. eigenvalues --    0.99628   1.06933   1.15388   1.40324   1.44109
 Alpha virt. eigenvalues --    1.59010   1.83871   2.28031   2.32470   3.02732

 Mulliken charges:
               1
     1  O   -0.376178
     2  H    0.188089
     3  H    0.188089
 Sum of Mulliken charges =   0.00000

 Dipole moment (field-independent basis, Debye):
    X=              0.0000    Y=              0.0000    Z=             -2.2594  Tot=              2.2594
 Quadrupole moment (field-independent basis, Debye-Ang):
   XX=             -7.0375   YY=             -4.2068   ZZ=             -5.8806
   XY=              0.0000   XZ=              0.0000   YZ=              0.0000

  Exact polarizability:   3.282   0.000   7.486   0.000   0.000   5.604
 Approx polarizability:   2.949   0.000   7.024   0.000   0.000   5.420

                      1                      2                      3
                     A1                     A1                     B2
 Frequencies --   1623.9169              3867.2166              3946.8492
 Red. masses --      1.0805                 1.0472                 1.0802
 Frc consts  --      1.6787                 9.2277                 9.9140
 IR Inten    --     88.4819                31.6794                87.9726

 - Thermochemistry -
 -------------------
 Temperature   298.150 Kelvin.  Pressure   1.00000 Atm.
 Atom     1 has atomic number  8 and mass  15.99491

 Molecular mass:    18.01056 amu.
 Principal axes and moments of inertia in atomic units:
                           1         2         3
     Eigenvalues --     2.31285   4.09074   6.40358
           X            0.00000   0.00000   1.00000
           Y            1.00000   0.00000   0.00000
           Z            0.00000   1.00000   0.00000
 This molecule is an asymmetric top.
 Rotational symmetry number  2.
 Rotational temperatures (Kelvin)     37.44902    21.17315    13.52583
 Rotational constants (GHZ):         780.31198   441.17737   281.83298
 Zero-point vibrational energy      56451.7 (Joules/Mol)
                                   13.49227 (Kcal/Mol)
 Vibrational temperatures:   2336.45  5564.06  5678.63
          (Kelvin)

 Zero-point correction=                           0.021501 (Hartree/Particle)
 Thermal correction to Energy=                    0.024337
 Thermal correction to Enthalpy=                  0.025281
 Thermal correction to Gibbs Free Energy=         0.003844
 Sum of electronic and zero-point Energies=            -76.308535
 Sum of electronic and thermal Energies=               -76.305700
 Sum of electronic and thermal Enthalpies=             -76.304755
 Sum of electronic and thermal Free Energies=          -76.326193

                     E (Thermal)             CV                S
                      KCal/Mol        Cal/Mol-Kelvin    Cal/Mol-Kelvin
 Total                   15.272              6.010             45.119
 Electronic               0.000              0.000              0.000
 Translational            0.889              2.981             34.608
 Rotational               0.889              2.981             10.503
 Vibrational             13.494              0.048              0.007

 Optimization completed.
    -- Stationary point found.
 Normal termination of Gaussian 09 at Fri Oct 23 19:58:14 2020.
