 Gaussian 09, Revision D.01,
 Gaussian 09:  ES64L-G09RevD.01 24-Apr-2013

 -----------------------------------------------------------------
 # opt freq scrf=(cpcm,solvent=nitromethane) pop=nbo def2svp m062x
 -----------------------------------------------------------------

 ----------
 Isatin opt
 ----------
 Symbolic Z-matrix:
 Charge =  0 Multiplicity = 1

 SCF Done:  E(RM062X) =  -551.656057480     A.U. after   15 cycles
 SCF Done:  E(RM062X) =  -551.713853736     A.U. after   13 cycles
 SCF Done:  E(RM062X) =  -551.752469891     A.U. after   14 cycles
 SCF Done:  E(RM062X) =  -551.758690774     A.U. after   13 cycles
 SCF Done:  E(RM062X) =  -551.759261082     A.U. after   13 cycles
 SCF Done:  E(RM062X) =  -551.758902802     A.U. after   12 cycles
 SCF Done:  E(RM062X) =  -551.759282535     A.U. after   12 cycles
 SCF Done:  E(RM062X) =  -551.759152268     A.U. after   13 cycles
 SCF Done:  E(RM062X) =  -551.759276560     A.U. after   12 cycles
 SCF Done:  E(RM062X) =  -551.759288847     A.U. after   11 cycles
 Optimization completed.
    -- Stationary point found.
 Normal termination of Gaussian 09 at Tue Aug 24 15:22:50 2021.

 -------------------------------------------------------------------
 #N Geom=AllCheck Guess=TCheck SCRF=Check GenChk RM062X/def2SVP Freq
 -------------------------------------------------------------------

 Structure from the checkpoint file:  "Isatin_opt.chk"
 ----------
 Isatin opt
 ----------
 Charge =  0 Multiplicity = 1

                         Standard orientation:
 ---------------------------------------------------------------------
 Center     Atomic      Atomic             Coordinates (Angstroms)
 Number     Number       Type             X           Y           Z
 ---------------------------------------------------------------------
      1          6           0       -2.735096    0.870483   -0.000042
      2          6           0       -1.465010    1.462152   -0.000038
      3          6           0       -0.367687    0.611482   -0.000005
      4          6           0       -0.535135   -0.785250    0.000033
      5          6           0       -1.798917   -1.362078    0.000053
      6          6           0       -2.911158   -0.516940   -0.000002
      7          1           0       -3.613557    1.517904   -0.000074
      8          1           0       -1.349349    2.545747   -0.000058
      9          1           0       -1.906397   -2.447933    0.000073
     10          1           0       -3.917718   -0.934684   -0.000013
     11          6           0        0.812094   -1.376550    0.000014
     12          6           0        1.785417   -0.154902   -0.000015
     13          7           0        0.990989    0.960943    0.000021
     14          8           0        2.989092   -0.202214   -0.000054
     15          8           0        1.177674   -2.520398   -0.000015
     16          6           0        1.488285    2.317379    0.000050
     17          1           0        1.148272    2.855442   -0.896084
     18          1           0        1.148042    2.855478    0.896074
     19          1           0        2.582892    2.267684    0.000193
 ---------------------------------------------------------------------

 SCF Done:  E(RM062X) =  -551.759288847     A.U. after    1 cycles

 The electronic state is 1-A.
 Alpha  occ. eigenvalues --  -19.65897 -19.63854 -14.81876 -10.67796 -10.66652
 Alpha  occ. eigenvalues --  -10.62455 -10.59802 -10.58572 -10.58245 -10.57664
 Alpha  occ. eigenvalues --  -10.57411 -10.56941  -1.19621  -1.17046  -1.09065
 Alpha  occ. eigenvalues --   -0.96703  -0.89376  -0.85662  -0.81683  -0.76070
 Alpha  occ. eigenvalues --   -0.70828  -0.67844  -0.65631  -0.59940  -0.59256
 Alpha  occ. eigenvalues --   -0.57275  -0.55703  -0.53874  -0.52513  -0.52137
 Alpha  occ. eigenvalues --   -0.52046  -0.50741  -0.46986  -0.46968  -0.45624
 Alpha  occ. eigenvalues --   -0.44728  -0.43267  -0.40534  -0.38257  -0.33221
 Alpha  occ. eigenvalues --   -0.32697  -0.28681
 Alpha virt. eigenvalues --   -0.06658   0.01103   0.04357   0.10339   0.11699
 Alpha virt. eigenvalues --    0.13454   0.14741   0.16734   0.17138   0.18093
 Alpha virt. eigenvalues --    0.19303   0.19473   0.20838   0.21500   0.25564

 Mulliken charges:
               1
     1  C   -0.007173
     2  C   -0.079673
     3  C    0.186623
     4  C   -0.067768
     5  C   -0.018131
     6  C   -0.029299
     7  H    0.056544
     8  H    0.034434
     9  H    0.043491
    10  H    0.047493
    11  C    0.114335
    12  C    0.225686
    13  N   -0.365231
    14  O   -0.251498
    15  O   -0.192901
    16  C    0.056556
    17  H    0.082961
    18  H    0.082960
    19  H    0.080591
 Sum of Mulliken charges =   0.00000

 Dipole moment (field-independent basis, Debye):
    X=             -5.4804    Y=              5.2480    Z=              0.0002  Tot=              7.5879
 Quadrupole moment (field-independent basis, Debye-Ang):
   XX=            -72.7183   YY=            -64.8813   ZZ=            -69.3908
   XY=              7.9820   XZ=              0.0006   YZ=             -0.0002

  Exact polarizability: 186.217 -10.389 155.204   0.000  -0.001  62.766
 Approx polarizability: 174.908 -14.593 154.259   0.000  -0.001  67.268

 Summary of Natural Population Analysis:

                                       Natural Population
                Natural  -----------------------------------------------
    Atom  No    Charge         Core      Valence    Rydberg      Total
 -----------------------------------------------------------------------
      C    1   -0.17165      1.99904     4.15765    0.01496     6.17165
      C    2   -0.27652      1.99894     4.26304    0.01454     6.27652
      C    3    0.22846      1.99890     3.75433    0.01831     5.77154
      C    4   -0.21133      1.99882     4.19556    0.01694     6.21133
      C    5   -0.15689      1.99897     4.14176    0.01616     6.15689
      C    6   -0.25869      1.99901     4.24449    0.01519     6.25869
      H    7    0.24695      0.00000     0.75060    0.00245     0.75305
      H    8    0.25690      0.00000     0.74085    0.00225     0.74310
      H    9    0.25155      0.00000     0.74514    0.00330     0.74845
      H   10    0.24650      0.00000     0.75109    0.00240     0.75350
      C   11    0.52968      1.99914     3.42694    0.04424     5.47032
      C   12    0.68850      1.99924     3.25972    0.05254     5.31150
      N   13   -0.51820      1.99905     5.50961    0.00954     7.51820
      O   14   -0.61054      1.99974     6.59855    0.01225     8.61054
      O   15   -0.52939      1.99974     6.51678    0.01287     8.52939
      C   16   -0.41055      1.99936     4.39760    0.01359     6.41055
      H   17    0.22663      0.00000     0.77116    0.00221     0.77337
      H   18    0.22663      0.00000     0.77116    0.00221     0.77337
      H   19    0.24194      0.00000     0.75417    0.00389     0.75806
 =======================================================================
   * Total *    0.00000     23.98996    59.75021    0.25982    84.00000

                      1                      2                      3
                      A                      A                      A
 Frequencies --    112.5666               122.4551               145.8939
 Red. masses --      8.5052                 2.8862                 5.6751
 Frc consts  --      0.0635                 0.0255                 0.0712
 IR Inten    --      0.1334                 3.0104                 1.0421

                      4                      5                      6
                      A                      A                      A
 Frequencies --    173.8301               240.1162               288.5620
 Red. masses --      1.0705                 3.4536                 5.3780
 Frc consts  --      0.0191                 0.1173                 0.2638
 IR Inten    --      0.0027                 1.8734                 0.0083

                      7                      8                      9
                      A                      A                      A
 Frequencies --    296.5503               335.0398               416.1106
 Red. masses --      5.2607                10.3122                 3.7150
 Frc consts  --      0.2726                 0.6820                 0.3790
 IR Inten    --      6.0116                13.7261                 1.5688

                     10                     11                     12
                      A                      A                      A
 Frequencies --    491.2878               494.5518               540.6823
 Red. masses --      8.1527                 5.1389                 5.3193
 Frc consts  --      1.1594                 0.7405                 0.9162
 IR Inten    --      3.2781                44.7558                15.3558

                     13                     14                     15
                      A                      A                      A
 Frequencies --    565.4611               572.5232               702.3322
 Red. masses --      8.7433                 4.0718                 6.1783
 Frc consts  --      1.6471                 0.7864                 1.7956
 IR Inten    --     12.5008                 3.7719                 4.1097

                     16                     17                     18
                      A                      A                      A
 Frequencies --    722.2137               754.6434               786.6243
 Red. masses --      6.0995                 2.8636                 1.5680
 Frc consts  --      1.8745                 0.9608                 0.5717
 IR Inten    --      7.9618                 5.3854                78.9938

                     19                     20                     21
                      A                      A                      A
 Frequencies --    849.5769               883.9650               912.8337
 Red. masses --      4.9281                 4.5436                 1.4691
 Frc consts  --      2.0957                 2.0918                 0.7212
 IR Inten    --      3.1730                35.5971                 5.0320

                     22                     23                     24
                      A                      A                      A
 Frequencies --    989.4460              1004.7667              1048.7344
 Red. masses --      3.9113                 1.3983                 1.3493
 Frc consts  --      2.2561                 0.8317                 0.8744
 IR Inten    --     13.8824                 1.5150                 0.2524

                     25                     26                     27
                      A                      A                      A
 Frequencies --   1049.6885              1080.6003              1119.9676
 Red. masses --      1.8003                 5.3679                 1.7053
 Frc consts  --      1.1687                 3.6930                 1.2602
 IR Inten    --     12.6300                14.0778                85.8502

                     28                     29                     30
                      A                      A                      A
 Frequencies --   1135.6204              1136.1475              1169.0458
 Red. masses --      1.7815                 1.3195                 1.1969
 Frc consts  --      1.3536                 1.0035                 0.9638
 IR Inten    --     70.5187                 0.6149                28.9722

                     31                     32                     33
                      A                      A                      A
 Frequencies --   1225.9866              1284.7803              1350.1591
 Red. masses --      2.6065                 2.2929                 2.6536
 Frc consts  --      2.3082                 2.2300                 2.8500
 IR Inten    --     40.3287                 3.6355               142.7359

                     34                     35                     36
                      A                      A                      A
 Frequencies --   1383.8150              1415.1342              1440.6795
 Red. masses --      4.8904                 1.6301                 2.0904
 Frc consts  --      5.5176                 1.9234                 2.5563
 IR Inten    --    124.0429                67.0181                78.4611

                     37                     38                     39
                      A                      A                      A
 Frequencies --   1457.0105              1480.1728              1526.8564
 Red. masses --      1.0368                 1.1148                 3.4085
 Frc consts  --      1.2968                 1.4390                 4.6817
 IR Inten    --     19.1005                68.8658               268.1255

                     40                     41                     42
                      A                      A                      A
 Frequencies --   1551.9874              1695.1197              1710.7144
 Red. masses --      4.1082                 7.6581                 8.0176
 Frc consts  --      5.8302                12.9651                13.8246
 IR Inten    --     88.7679                75.5337               588.1562

                     43                     44                     45
                      A                      A                      A
 Frequencies --   1894.4227              1909.8782              3062.7434
 Red. masses --     12.4816                13.1157                 1.0344
 Frc consts  --     26.3921                28.1873                 5.7172
 IR Inten    --    645.5879               563.6622                37.0004

                     46                     47                     48
                      A                      A                      A
 Frequencies --   3153.3920              3194.6906              3217.9874
 Red. masses --      1.1083                 1.1049                 1.0886
 Frc consts  --      6.4930                 6.6442                 6.6415
 IR Inten    --     12.3099                 0.0278                 0.3283

                     49                     50                     51
                      A                      A                      A
 Frequencies --   3226.2074              3233.5392              3240.2254
 Red. masses --      1.0928                 1.0971                 1.0995
 Frc consts  --      6.7017                 6.7586                 6.8014
 IR Inten    --      2.1730                 6.3489                 1.4687

 - Thermochemistry -
 -------------------
 Temperature   298.150 Kelvin.  Pressure   1.00000 Atm.
 Atom     1 has atomic number  6 and mass  12.00000

 Molecular mass:   161.04768 amu.
 Principal axes and moments of inertia in atomic units:
                           1         2         3
     Eigenvalues --  1116.980091993.188003098.60870
           X            0.99892   0.04650   0.00000
           Y           -0.04650   0.99892   0.00000
           Z            0.00000   0.00000   1.00000
 This molecule is an asymmetric top.
 Rotational symmetry number  1.
 Warning -- assumption of classical behavior for rotation
           may cause significant error
 Rotational temperatures (Kelvin)      0.07754     0.04345     0.02795
 Rotational constants (GHZ):           1.61573     0.90545     0.58244
 Zero-point vibrational energy     381592.8 (Joules/Mol)
                                   91.20287 (Kcal/Mol)
 Warning -- explicit consideration of  14 degrees of freedom as
           vibrations may cause significant error
 Vibrational temperatures:    161.96   176.19   209.91   250.10   345.47
          (Kelvin)            415.18   426.67   482.05   598.69   706.85
                              711.55   777.92   813.57   823.73  1010.50
                             1039.10  1085.76  1131.78  1222.35  1271.83
                             1313.36  1423.59  1445.63  1508.89  1510.27
                             1554.74  1611.38  1633.90  1634.66  1681.99
                             1763.92  1848.51  1942.58  1991.00  2036.06
                             2072.81  2096.31  2129.64  2196.80  2232.96
                             2438.90  2461.33  2725.65  2747.89  4406.60
                             4537.02  4596.44  4629.96  4641.79  4652.34
                             4661.96

 Zero-point correction=                           0.145341 (Hartree/Particle)
 Thermal correction to Energy=                    0.154768
 Thermal correction to Enthalpy=                  0.155712
 Thermal correction to Gibbs Free Energy=         0.110588
 Sum of electronic and zero-point Energies=           -551.613948
 Sum of electronic and thermal Energies=              -551.604521
 Sum of electronic and thermal Enthalpies=            -551.603577
 Sum of electronic and thermal Free Energies=         -551.648701

                     E (Thermal)             CV                S
                      KCal/Mol        Cal/Mol-Kelvin    Cal/Mol-Kelvin
 Total                   97.118             36.168             94.970
 Electronic               0.000              0.000              0.000
 Translational            0.889              2.981             41.139
 Rotational               0.889              2.981             30.313
 Vibrational             95.341             30.206             23.519
 Vibration     1          0.607              1.939              3.224
 Vibration     2          0.610              1.930              3.061
 Vibration     3          0.617              1.907              2.725
 Vibration     4          0.627              1.875              2.394
 Vibration     5          0.657              1.779              1.802
 Vibration     6          0.685              1.695              1.482
 Vibration     7          0.690              1.680              1.436
 Vibration     8          0.716              1.606              1.236
 Vibration     9          0.779              1.435              0.905
 Vibration    10          0.847              1.269              0.680
 Vibration    11          0.850              1.262              0.672
 Vibration    12          0.896              1.160              0.564
 Vibration    13          0.921              1.106              0.513
 Vibration    14          0.929              1.091              0.499

 Optimization completed.
    -- Stationary point found.
 Normal termination of Gaussian 09 at Tue Aug 24 15:28:24 2021.
