 Gaussian 09, Revision D.01,
 Gaussian 09:  ES64L-G09RevD.01 24-Apr-2013

 -------------------------------------------------------------
 # freq scrf=(cpcm,solvent=nitromethane) pop=nbo def2svp m062x
 -------------------------------------------------------------

 -------------------
 MeNO2+2H2O TS3 freq
 -------------------
 Symbolic Z-matrix:
 Charge =  0 Multiplicity = 1

                         Standard orientation:
 ---------------------------------------------------------------------
 Center     Atomic      Atomic             Coordinates (Angstroms)
 Number     Number       Type             X           Y           Z
 ---------------------------------------------------------------------
      1          7           0        1.202294   -0.057814    0.070981
      2          8           0        2.173845    0.210596   -0.618495
      3          8           0        0.711659   -1.227368    0.015048
      4          6           0        0.584969    0.890630    0.852132
      5          1           0        0.069976    0.457501    1.710776
      6          1           0        1.204963    1.773102    1.004404
      7          1           0       -0.779717    1.279661   -0.024483
      8          8           0       -1.731083    1.204100   -0.496640
      9          1           0       -2.352768    1.748074    0.011483
     10          1           0       -1.908151    0.086602   -0.285318
     11          8           0       -1.803091   -1.144020   -0.016577
     12          1           0       -2.188290   -1.357148    0.845043
     13          1           0       -0.782517   -1.273338    0.061746
 ---------------------------------------------------------------------

 SCF Done:  E(RM062X) =  -397.365707389     A.U. after   13 cycles

 The electronic state is 1-A.
 Alpha  occ. eigenvalues --  -19.68298 -19.66373 -19.63004 -19.62945 -14.97372
 Alpha  occ. eigenvalues --  -10.55383  -1.31494  -1.18158  -1.14079  -1.11698
 Alpha  occ. eigenvalues --   -0.89376  -0.68718  -0.66837  -0.63689  -0.62432
 Alpha  occ. eigenvalues --   -0.58726  -0.57875  -0.57339  -0.50693  -0.49877
 Alpha  occ. eigenvalues --   -0.46606  -0.42565  -0.37910  -0.36322  -0.34858
 Alpha  occ. eigenvalues --   -0.28534
 Alpha virt. eigenvalues --    0.00696   0.08125   0.12252   0.15702   0.18027
 Alpha virt. eigenvalues --    0.22326   0.24534   0.25685   0.28738   0.37379
 Alpha virt. eigenvalues --    0.40046   0.45307   0.51633   0.52791   0.55250

 Mulliken charges:
               1
     1  N    0.274412
     2  O   -0.372004
     3  O   -0.453073
     4  C   -0.282381
     5  H    0.081324
     6  H    0.069968
     7  H    0.252292
     8  O   -0.238315
     9  H    0.240974
    10  H    0.274837
    11  O   -0.330779
    12  H    0.234753
    13  H    0.247994
 Sum of Mulliken charges =   0.00000

 Dipole moment (field-independent basis, Debye):
    X=             -8.1048    Y=              2.6053    Z=              4.3128  Tot=              9.5433
 Quadrupole moment (field-independent basis, Debye-Ang):
   XX=            -34.5384   YY=            -34.6866   ZZ=            -36.3410
   XY=             -1.8605   XZ=             -2.6414   YZ=             -0.5262

  Exact polarizability:  66.132  -3.480  56.713 -10.968   4.219  39.271
 Approx polarizability:  63.374  -2.984  55.830 -12.676   3.316  39.466

 Summary of Natural Population Analysis:

                                       Natural Population
                Natural  -----------------------------------------------
    Atom  No    Charge         Core      Valence    Rydberg      Total
 -----------------------------------------------------------------------
      N    1    0.49663      1.99929     4.45702    0.04706     6.50337
      O    2   -0.48396      1.99975     6.46779    0.01642     8.48396
      O    3   -0.60796      1.99976     6.59301    0.01519     8.60796
      C    4   -0.58423      1.99929     4.55491    0.03003     6.58423
      H    5    0.22374      0.00000     0.77362    0.00264     0.77626
      H    6    0.22502      0.00000     0.77245    0.00253     0.77498
      H    7    0.50385      0.00000     0.49164    0.00450     0.49615
      O    8   -0.93610      1.99980     6.92702    0.00929     8.93610
      H    9    0.52258      0.00000     0.47235    0.00507     0.47742
      H   10    0.55408      0.00000     0.44141    0.00452     0.44592
      O   11   -0.96084      1.99982     6.95086    0.01016     8.96084
      H   12    0.51255      0.00000     0.48252    0.00493     0.48745
      H   13    0.53465      0.00000     0.45902    0.00634     0.46535
 =======================================================================
   * Total *    0.00000     11.99770    39.84361    0.15869    52.00000

 ******    1 imaginary frequencies (negative Signs) ******

                      1                      2                      3
                      A                      A                      A
 Frequencies --   -689.0715                58.8089                94.2096
 Red. masses --      1.4929                 6.1843                 6.8192
 Frc consts  --      0.4176                 0.0126                 0.0357
 IR Inten    --    691.6652                 1.4504                 1.0685

                      4                      5                      6
                      A                      A                      A
 Frequencies --    149.7785               325.1281               427.0896
 Red. masses --      6.7517                 5.5209                 1.1520
 Frc consts  --      0.0892                 0.3439                 0.1238
 IR Inten    --      1.6407               243.3728               145.0359

                      7                      8                      9
                      A                      A                      A
 Frequencies --    446.6136               482.9903               540.3369
 Red. masses --      1.3366                 1.3426                 1.5104
 Frc consts  --      0.1571                 0.1845                 0.2598
 IR Inten    --     45.7234                54.3105               113.7314

                     10                     11                     12
                      A                      A                      A
 Frequencies --    560.0582               578.9997               651.4011
 Red. masses --      1.9017                 1.5734                 1.8485
 Frc consts  --      0.3514                 0.3108                 0.4621
 IR Inten    --     24.8539               309.0285               163.3502

                     13                     14                     15
                      A                      A                      A
 Frequencies --    737.6987               750.1262               801.4756
 Red. masses --      1.2595                 3.1582                 2.3142
 Frc consts  --      0.4038                 1.0470                 0.8759
 IR Inten    --    122.7279                98.5202               229.6359

                     16                     17                     18
                      A                      A                      A
 Frequencies --    877.8312              1053.5019              1081.3021
 Red. masses --      2.3528                 1.7606                 2.1920
 Frc consts  --      1.0682                 1.1513                 1.5100
 IR Inten    --    663.2039               152.2802               187.9954

                     19                     20                     21
                      A                      A                      A
 Frequencies --   1131.1436              1165.7197              1368.0594
 Red. masses --      1.4285                 1.0842                 1.6712
 Frc consts  --      1.0769                 0.8681                 1.8428
 IR Inten    --     38.2289               863.0306               728.9744

                     22                     23                     24
                      A                      A                      A
 Frequencies --   1429.2061              1468.9786              1570.0925
 Red. masses --      1.1233                 1.9652                 2.2020
 Frc consts  --      1.3519                 2.4985                 3.1983
 IR Inten    --    185.2390               943.1458              1001.5838

                     25                     26                     27
                      A                      A                      A
 Frequencies --   1614.9136              1635.6400              1807.6803
 Red. masses --      1.0745                 1.5439                 1.0821
 Frc consts  --      1.6510                 2.4336                 2.0834
 IR Inten    --    493.7997               280.8185               282.4651

                     28                     29                     30
                      A                      A                      A
 Frequencies --   2237.3176              2653.9388              3164.8767
 Red. masses --      1.1054                 1.0870                 1.0516
 Frc consts  --      3.2600                 4.5110                 6.2060
 IR Inten    --   2794.8321              2883.4261                 2.5241

                     31                     32                     33
                      A                      A                      A
 Frequencies --   3290.9701              3833.3141              3866.5411
 Red. masses --      1.1217                 1.0656                 1.0658
 Frc consts  --      7.1574                 9.2256                 9.3877
 IR Inten    --      0.1834               217.4634               187.7527

 - Thermochemistry -
 -------------------
 Temperature   298.150 Kelvin.  Pressure   1.00000 Atm.
 Atom     1 has atomic number  7 and mass  14.00307

 Molecular mass:    97.03751 amu.
 Principal axes and moments of inertia in atomic units:
                           1         2         3
     Eigenvalues --   405.46024 884.803801122.50667
           X            0.99999   0.00499  -0.00126
           Y           -0.00497   0.99978   0.02057
           Z            0.00137  -0.02056   0.99979
 This molecule is an asymmetric top.
 Rotational symmetry number  1.
 Rotational temperatures (Kelvin)      0.21362     0.09789     0.07716
 Rotational constants (GHZ):           4.45109     2.03971     1.60778
    1 imaginary frequencies ignored.
 Zero-point vibrational energy     250352.9 (Joules/Mol)
                                   59.83579 (Kcal/Mol)
 Warning -- explicit consideration of  10 degrees of freedom as
           vibrations may cause significant error
 Vibrational temperatures:     84.61   135.55   215.50   467.79   614.49
          (Kelvin)            642.58   694.91   777.42   805.80   833.05
                              937.22  1061.38  1079.26  1153.14  1263.00
                             1515.75  1555.75  1627.46  1677.21  1968.33
                             2056.31  2113.53  2259.01  2323.50  2353.32
                             2600.85  3219.00  3818.42  4553.55  4734.97
                             5515.28  5563.08

 Zero-point correction=                           0.095354 (Hartree/Particle)
 Thermal correction to Energy=                    0.102714
 Thermal correction to Enthalpy=                  0.103658
 Thermal correction to Gibbs Free Energy=         0.063433
 Sum of electronic and zero-point Energies=           -397.270353
 Sum of electronic and thermal Energies=              -397.262993
 Sum of electronic and thermal Enthalpies=            -397.262049
 Sum of electronic and thermal Free Energies=         -397.302275

                     E (Thermal)             CV                S
                      KCal/Mol        Cal/Mol-Kelvin    Cal/Mol-Kelvin
 Total                   64.454             26.023             84.662
 Electronic               0.000              0.000              0.000
 Translational            0.889              2.981             39.628
 Rotational               0.889              2.981             27.490
 Vibrational             62.677             20.061             17.544
 Vibration     1          0.596              1.974              4.497
 Vibration     2          0.603              1.953              3.571
 Vibration     3          0.618              1.903              2.675
 Vibration     4          0.709              1.625              1.284
 Vibration     5          0.789              1.411              0.868
 Vibration     6          0.806              1.368              0.806
 Vibration     7          0.839              1.288              0.702
 Vibration     8          0.895              1.161              0.565
 Vibration     9          0.916              1.118              0.524
 Vibration    10          0.936              1.077              0.487

 Normal termination of Gaussian 09 at Fri Oct 23 20:30:29 2020.
