 Gaussian 09, Revision D.01,
 Gaussian 09:  ES64L-G09RevD.01 24-Apr-2013

 ----------------------------------------------------------------------
 # opt freq int=(grid=ultrafine) scrf=(cpcm,solvent=nitromethane) def2s
 vp m062x
 ----------------------------------------------------------------------

 -----------
 MeNO2 opt 2
 -----------
 Symbolic Z-matrix:
 Charge =  0 Multiplicity = 1

 SCF Done:  E(RM062X) =  -244.721860230     A.U. after   13 cycles
 SCF Done:  E(RM062X) =  -244.721856543     A.U. after   10 cycles
 SCF Done:  E(RM062X) =  -244.721860340     A.U. after    9 cycles
 SCF Done:  E(RM062X) =  -244.721861047     A.U. after   10 cycles
 SCF Done:  E(RM062X) =  -244.721861147     A.U. after    9 cycles
 SCF Done:  E(RM062X) =  -244.721861498     A.U. after   11 cycles
 SCF Done:  E(RM062X) =  -244.721861673     A.U. after   11 cycles
 SCF Done:  E(RM062X) =  -244.721861545     A.U. after   10 cycles
 SCF Done:  E(RM062X) =  -244.721861484     A.U. after   10 cycles
 SCF Done:  E(RM062X) =  -244.721861470     A.U. after    9 cycles
 SCF Done:  E(RM062X) =  -244.721861471     A.U. after    9 cycles
 SCF Done:  E(RM062X) =  -244.721861473     A.U. after    8 cycles
 Optimization completed.
    -- Stationary point found.
 Normal termination of Gaussian 09 at Fri Oct 23 20:22:41 2020.

 -------------------------------------------------------------------
 #N Geom=AllCheck Guess=TCheck SCRF=Check GenChk RM062X/def2SVP Freq
 -------------------------------------------------------------------

 Structure from the checkpoint file:  "MeNO2_opt_2.chk"
 -----------
 MeNO2 opt 2
 -----------
 Charge =  0 Multiplicity = 1

                         Standard orientation:
 ---------------------------------------------------------------------
 Center     Atomic      Atomic             Coordinates (Angstroms)
 Number     Number       Type             X           Y           Z
 ---------------------------------------------------------------------
      1          7           0       -0.169457   -0.000002   -0.011644
      2          8           0       -0.728554   -1.069986    0.003077
      3          8           0       -0.728395    1.070069    0.003076
      4          6           0        1.318293   -0.000077   -0.002499
      5          1           0        1.620887    0.000635    1.051030
      6          1           0        1.655541   -0.911054   -0.501285
      7          1           0        1.655607    0.910233   -0.502466
 ---------------------------------------------------------------------

 SCF Done:  E(RM062X) =  -244.721861473     A.U. after    1 cycles

 The electronic state is 1-A.
 Alpha  occ. eigenvalues --  -19.66921 -19.66914 -15.00737 -10.60927  -1.36702
 Alpha  occ. eigenvalues --   -1.17815  -0.90826  -0.69828  -0.64434  -0.62710
 Alpha  occ. eigenvalues --   -0.60941  -0.50985  -0.49021  -0.39188  -0.38506
 Alpha  occ. eigenvalues --   -0.38312
 Alpha virt. eigenvalues --   -0.01534   0.11561   0.16342   0.16675   0.17565
 Alpha virt. eigenvalues --    0.34163   0.42507   0.46777   0.49145   0.51687
 Alpha virt. eigenvalues --    0.62254   0.68288   0.69280   0.69392   0.77509

 Mulliken charges:
               1
     1  N    0.202130
     2  O   -0.293801
     3  O   -0.293818
     4  C    0.065235
     5  H    0.123411
     6  H    0.098405
     7  H    0.098438
 Sum of Mulliken charges =   0.00000

 Dipole moment (field-independent basis, Debye):
    X=              4.2885    Y=             -0.0002    Z=              0.0596  Tot=              4.2889
 Quadrupole moment (field-independent basis, Debye-Ang):
   XX=            -21.4418   YY=            -26.6047   ZZ=            -21.0712
   XY=             -0.0001   XZ=              0.1673   YZ=              0.0000

  Exact polarizability:  28.216   0.002  39.266   0.207   0.000  18.961
 Approx polarizability:  25.908   0.003  47.390   0.215   0.000  18.801

                      1                      2                      3
                      A                      A                      A
 Frequencies --     26.1860               503.8327               635.2340
 Red. masses --      1.0969                 3.2527                 3.1303
 Frc consts  --      0.0004                 0.4865                 0.7442
 IR Inten    --      0.1557                 0.9576                11.7971

                      4                      5                      6
                      A                      A                      A
 Frequencies --    703.0990               988.6229              1111.2078
 Red. masses --      6.0349                 8.8516                 1.4057
 Frc consts  --      1.7577                 5.0972                 1.0227
 IR Inten    --     44.6431                16.8162                13.6540

                      7                      8                      9
                      A                      A                      A
 Frequencies --   1138.4117              1391.2907              1426.4258
 Red. masses --      1.6275                 1.1943                 1.0464
 Frc consts  --      1.2427                 1.3620                 1.2545
 IR Inten    --      6.3154                11.1379                57.8052

                     10                     11                     12
                      A                      A                      A
 Frequencies --   1445.4960              1557.1701              1763.5124
 Red. masses --      1.0515                13.3675                11.4246
 Frc consts  --      1.2945                19.0974                20.9338
 IR Inten    --     23.5677               143.1984               601.1211

                     13                     14                     15
                      A                      A                      A
 Frequencies --   3112.6127              3233.2991              3269.9421
 Red. masses --      1.0317                 1.1063                 1.1138
 Frc consts  --      5.8890                 6.8140                 7.0169
 IR Inten    --      0.7655                 3.1251                 1.7121

 - Thermochemistry -
 -------------------
 Temperature   298.150 Kelvin.  Pressure   1.00000 Atm.
 Atom     1 has atomic number  7 and mass  14.00307

 Molecular mass:    61.01638 amu.
 Principal axes and moments of inertia in atomic units:
                           1         2         3
     Eigenvalues --   142.56316 170.11673 301.08677
           X            1.00000  -0.00004   0.00102
           Y            0.00004   1.00000   0.00000
           Z           -0.00102   0.00000   1.00000
 This molecule is an asymmetric top.
 Rotational symmetry number  1.
 Rotational temperatures (Kelvin)      0.60755     0.50914     0.28767
 Rotational constants (GHZ):          12.65924    10.60884     5.99409
 Zero-point vibrational energy     133421.6 (Joules/Mol)
                                   31.88852 (Kcal/Mol)
 Warning -- explicit consideration of   2 degrees of freedom as
           vibrations may cause significant error
 Vibrational temperatures:     37.68   724.90   913.96  1011.60  1422.41
          (Kelvin)           1598.78  1637.92  2001.75  2052.31  2079.74
                             2240.42  2537.30  4478.35  4651.99  4704.71

 Zero-point correction=                           0.050818 (Hartree/Particle)
 Thermal correction to Energy=                    0.055120
 Thermal correction to Enthalpy=                  0.056064
 Thermal correction to Gibbs Free Energy=         0.023058
 Sum of electronic and zero-point Energies=           -244.671044
 Sum of electronic and thermal Energies=              -244.666741
 Sum of electronic and thermal Enthalpies=            -244.665797
 Sum of electronic and thermal Free Energies=         -244.698803

                     E (Thermal)             CV                S
                      KCal/Mol        Cal/Mol-Kelvin    Cal/Mol-Kelvin
 Total                   34.588             12.265             69.467
 Electronic               0.000              0.000              0.000
 Translational            0.889              2.981             38.245
 Rotational               0.889              2.981             23.505
 Vibrational             32.811              6.303              7.716
 Vibration     1          0.593              1.985              6.099
 Vibration     2          0.859              1.242              0.649

 Optimization completed.
    -- Stationary point found.
 Normal termination of Gaussian 09 at Fri Oct 23 20:23:20 2020.
