 Gaussian 09, Revision D.01,
 Gaussian 09:  ES64L-G09RevD.01 24-Apr-2013

 -------------------------------------------------------------
 # freq scrf=(cpcm,solvent=nitromethane) pop=nbo def2svp m062x
 -------------------------------------------------------------

 -----------------------
 MeNO2 + isatin TS4 freq
 -----------------------
 Symbolic Z-matrix:
 Charge =  0 Multiplicity = 1

                         Standard orientation:
 ---------------------------------------------------------------------
 Center     Atomic      Atomic             Coordinates (Angstroms)
 Number     Number       Type             X           Y           Z
 ---------------------------------------------------------------------
      1          7           0        2.122540   -0.417557    1.312869
      2          8           0        2.570454    0.712461    1.473473
      3          8           0        2.876873   -1.335859    0.839172
      4          6           0        0.806966   -0.708305    1.477768
      5          1           0        0.240019    0.030442    2.040746
      6          1           0        0.576503   -1.768888    1.512671
      7          1           0        3.323773   -0.778878   -0.392994
      8          6           0       -3.894378   -0.424312    0.346462
      9          6           0       -3.084206    0.718065    0.310004
     10          6           0       -1.754997    0.543273   -0.049668
     11          6           0       -1.242445   -0.729866   -0.351488
     12          6           0       -2.053106   -1.855258   -0.320781
     13          6           0       -3.395976   -1.692122    0.032915
     14          1           0       -4.944221   -0.316069    0.622755
     15          1           0       -3.487114    1.702640    0.547388
     16          1           0       -1.643505   -2.836810   -0.564830
     17          1           0       -4.059034   -2.556741    0.064222
     18          6           0        0.186687   -0.551652   -0.681305
     19          6           0        0.411373    0.972796   -0.609022
     20          7           0       -0.759260    1.523455   -0.182834
     21          8           0        1.433790    1.564561   -0.905616
     22          8           0        0.921535   -1.314905   -1.331352
     23          6           0       -0.961490    2.937800    0.041681
     24          1           0       -1.729986    3.329846   -0.639005
     25          1           0       -1.268007    3.120150    1.080831
     26          1           0       -0.010399    3.445552   -0.152587
     27          8           0        3.215172   -0.388797   -1.377524
     28          1           0        2.267095   -0.824259   -1.551330
     29          1           0        2.938749    0.549532   -1.242737
 ---------------------------------------------------------------------

 SCF Done:  E(RM062X) =  -872.804270164     A.U. after   15 cycles

 The electronic state is 1-A.
 Alpha  occ. eigenvalues --  -19.69397 -19.65166 -19.64941 -19.64884 -19.64540
 Alpha  occ. eigenvalues --  -14.98302 -14.82461 -10.68764 -10.68020 -10.62043
 Alpha  occ. eigenvalues --  -10.59976 -10.59597 -10.58107 -10.57793 -10.57749
 Alpha  occ. eigenvalues --  -10.57608 -10.56834  -1.32931  -1.20850  -1.18715
 Alpha  occ. eigenvalues --   -1.16298  -1.13238  -1.09498  -0.96629  -0.92372
 Alpha  occ. eigenvalues --   -0.89504  -0.85520  -0.81945  -0.76733  -0.71194
 Alpha  occ. eigenvalues --   -0.69661  -0.68465  -0.67606  -0.65179  -0.64005
 Alpha  occ. eigenvalues --   -0.62397  -0.60721  -0.59934  -0.59619  -0.58028
 Alpha  occ. eigenvalues --   -0.56665  -0.55936  -0.53768  -0.52758  -0.52353
 Alpha  occ. eigenvalues --   -0.51915  -0.51312  -0.50035  -0.49664  -0.47204
 Alpha  occ. eigenvalues --   -0.47090  -0.45539  -0.44554  -0.43194  -0.41396
 Alpha  occ. eigenvalues --   -0.39734  -0.38767  -0.37613  -0.36367  -0.34376
 Alpha  occ. eigenvalues --   -0.33519  -0.29130  -0.28301
 Alpha virt. eigenvalues --   -0.06924   0.00721   0.02170   0.04325   0.09707
 Alpha virt. eigenvalues --    0.10964   0.11665   0.12711   0.14444   0.15326
 Alpha virt. eigenvalues --    0.15704   0.17264   0.17884   0.18963   0.19369

 Mulliken charges:
               1
     1  N    0.199200
     2  O   -0.335789
     3  O   -0.427660
     4  C    0.023896
     5  H    0.091799
     6  H    0.079909
     7  H    0.253231
     8  C   -0.013274
     9  C   -0.078589
    10  C    0.167382
    11  C    0.017383
    12  C   -0.031512
    13  C   -0.028619
    14  H    0.052145
    15  H    0.031725
    16  H    0.039839
    17  H    0.045336
    18  C   -0.004547
    19  C    0.270159
    20  N   -0.332364
    21  O   -0.307664
    22  O   -0.339436
    23  C    0.059529
    24  H    0.085031
    25  H    0.084508
    26  H    0.084331
    27  O   -0.175824
    28  H    0.259900
    29  H    0.229974
 Sum of Mulliken charges =   0.00000

 Dipole moment (field-independent basis, Debye):
    X=             -7.8592    Y=              1.9604    Z=              0.1172  Tot=              8.1009
 Quadrupole moment (field-independent basis, Debye-Ang):
   XX=            -98.7543   YY=            -91.5884   ZZ=           -102.3280
   XY=             -1.4515   XZ=             -7.7042   YZ=             -1.1008

  Exact polarizability: 281.583  13.262 191.231  -0.790  10.833 136.803
 Approx polarizability: 250.788  14.036 195.506  -5.329  15.821 142.876

 Summary of Natural Population Analysis:

                                       Natural Population
                Natural  -----------------------------------------------
    Atom  No    Charge         Core      Valence    Rydberg      Total
 -----------------------------------------------------------------------
      N    1    0.45838      1.99921     4.49566    0.04675     6.54162
      O    2   -0.47640      1.99976     6.46018    0.01647     8.47640
      O    3   -0.60492      1.99978     6.58969    0.01544     8.60492
      C    4   -0.33693      1.99925     4.30620    0.03147     6.33693
      H    5    0.23959      0.00000     0.75768    0.00273     0.76041
      H    6    0.24764      0.00000     0.74969    0.00267     0.75236
      H    7    0.53815      0.00000     0.45335    0.00850     0.46185
      C    8   -0.19151      1.99903     4.17743    0.01505     6.19151
      C    9   -0.26705      1.99894     4.25351    0.01461     6.26705
      C   10    0.21323      1.99887     3.76935    0.01855     5.78677
      C   11   -0.16337      1.99879     4.14590    0.01868     6.16337
      C   12   -0.17760      1.99894     4.16224    0.01641     6.17760
      C   13   -0.24879      1.99901     4.23459    0.01519     6.24879
      H   14    0.24579      0.00000     0.75178    0.00244     0.75421
      H   15    0.25628      0.00000     0.74146    0.00225     0.74372
      H   16    0.25176      0.00000     0.74519    0.00305     0.74824
      H   17    0.24535      0.00000     0.75225    0.00240     0.75465
      C   18    0.45889      1.99895     3.49491    0.04725     5.54111
      C   19    0.70482      1.99908     3.24303    0.05307     5.29518
      N   20   -0.50177      1.99902     5.49274    0.01002     7.50177
      O   21   -0.66489      1.99970     6.65319    0.01200     8.66489
      O   22   -0.68070      1.99967     6.66818    0.01285     8.68070
      C   23   -0.40861      1.99936     4.39587    0.01337     6.40861
      H   24    0.22786      0.00000     0.76994    0.00220     0.77214
      H   25    0.22903      0.00000     0.76883    0.00214     0.77097
      H   26    0.24362      0.00000     0.75290    0.00348     0.75638
      O   27   -0.92623      1.99980     6.91768    0.00874     8.92623
      H   28    0.54489      0.00000     0.44756    0.00755     0.45511
      H   29    0.54349      0.00000     0.44952    0.00699     0.45651
 =======================================================================
   * Total *    0.00000     33.98718    91.60049    0.41233   126.00000

 ******    1 imaginary frequencies (negative Signs) ******

                      1                      2                      3
                      A                      A                      A
 Frequencies --   -430.6172                59.8687                76.9583
 Red. masses --      3.5816                 6.5472                 6.0076
 Frc consts  --      0.3913                 0.0138                 0.0210
 IR Inten    --    471.3551                 1.0459                 3.3208

                      4                      5                      6
                      A                      A                      A
 Frequencies --     90.1842               126.0814               138.1640
 Red. masses --      4.6383                 1.6587                 4.8011
 Frc consts  --      0.0222                 0.0155                 0.0540
 IR Inten    --      4.4577                 1.3223                 7.0958

                      7                      8                      9
                      A                      A                      A
 Frequencies --    142.4714               151.8120               157.0453
 Red. masses --      2.0610                 3.8891                 5.5712
 Frc consts  --      0.0246                 0.0528                 0.0810
 IR Inten    --      0.2991                 8.0148                16.3732

                     10                     11                     12
                      A                      A                      A
 Frequencies --    200.5305               212.2465               236.1506
 Red. masses --      6.0554                 8.6623                 6.3350
 Frc consts  --      0.1435                 0.2299                 0.2081
 IR Inten    --     34.4479                 0.8739                16.7430

                     13                     14                     15
                      A                      A                      A
 Frequencies --    255.6790               301.6165               326.9257
 Red. masses --      3.3019                 5.1519                 5.6064
 Frc consts  --      0.1272                 0.2761                 0.3530
 IR Inten    --     19.9084                21.9447                 1.7000

                     16                     17                     18
                      A                      A                      A
 Frequencies --    363.4524               414.5525               464.0915
 Red. masses --      6.4957                 4.1106                 4.4059
 Frc consts  --      0.5056                 0.4162                 0.5591
 IR Inten    --     10.0956                92.0622               163.8680

                     19                     20                     21
                      A                      A                      A
 Frequencies --    497.7141               504.8728               545.8443
 Red. masses --      7.6471                 4.4734                 4.1670
 Frc consts  --      1.1161                 0.6718                 0.7315
 IR Inten    --     28.8249               241.7540                12.0687

                     22                     23                     24
                      A                      A                      A
 Frequencies --    559.1980               578.9092               582.6466
 Red. masses --      3.2120                 3.2243                 3.6084
 Frc consts  --      0.5918                 0.6367                 0.7217
 IR Inten    --     17.7211                46.7233               102.1109

                     25                     26                     27
                      A                      A                      A
 Frequencies --    615.8741               664.4831               689.5757
 Red. masses --      1.3919                 1.5404                 1.9829
 Frc consts  --      0.3111                 0.4007                 0.5555
 IR Inten    --    167.6273                60.0332                79.3205

                     28                     29                     30
                      A                      A                      A
 Frequencies --    711.7651               720.3397               733.8629
 Red. masses --      5.3229                 2.4745                 4.0958
 Frc consts  --      1.5888                 0.7565                 1.2996
 IR Inten    --     31.8714                92.6957                23.8424

                     31                     32                     33
                      A                      A                      A
 Frequencies --    751.0176               772.3078               784.4840
 Red. masses --      2.1334                 1.9646                 1.7345
 Frc consts  --      0.7090                 0.6904                 0.6289
 IR Inten    --     57.8153                13.1332                79.7983

                     34                     35                     36
                      A                      A                      A
 Frequencies --    801.5836               837.1530               875.7915
 Red. masses --      2.1991                 3.0335                 1.4511
 Frc consts  --      0.8325                 1.2526                 0.6557
 IR Inten    --     91.6614                30.5438               166.4404

                     37                     38                     39
                      A                      A                      A
 Frequencies --    892.2527               901.5188               987.8248
 Red. masses --      3.9367                 1.5085                 1.3975
 Frc consts  --      1.8466                 0.7224                 0.8034
 IR Inten    --     18.8566                 1.9897                 0.8112

                     40                     41                     42
                      A                      A                      A
 Frequencies --   1012.5694              1037.9959              1047.7891
 Red. masses --      4.0407                 1.3454                 1.7324
 Frc consts  --      2.4409                 0.8541                 1.1206
 IR Inten    --     25.3744                 0.5029                11.6363

                     43                     44                     45
                      A                      A                      A
 Frequencies --   1065.2553              1083.7480              1123.0210
 Red. masses --      3.0609                 4.3527                 1.7234
 Frc consts  --      2.0465                 3.0121                 1.2806
 IR Inten    --    111.3256                 8.2280                96.8289

                     46                     47                     48
                      A                      A                      A
 Frequencies --   1126.5354              1142.2074              1145.4162
 Red. masses --      1.8210                 1.5600                 1.3817
 Frc consts  --      1.3616                 1.1991                 1.0680
 IR Inten    --     17.3048                92.2452                33.4133

                     49                     50                     51
                      A                      A                      A
 Frequencies --   1163.9859              1218.9473              1288.4365
 Red. masses --      1.2795                 2.6172                 2.1305
 Frc consts  --      1.0214                 2.2912                 2.0838
 IR Inten    --     93.5918               103.3463                14.5740

                     52                     53                     54
                      A                      A                      A
 Frequencies --   1338.2782              1353.1899              1394.1006
 Red. masses --      2.4145                 2.6773                 4.6631
 Frc consts  --      2.5478                 2.8884                 5.3397
 IR Inten    --   1127.2301                58.9756                50.5247

                     55                     56                     57
                      A                      A                      A
 Frequencies --   1419.5099              1432.5967              1444.0327
 Red. masses --      1.7089                 1.2935                 1.8953
 Frc consts  --      2.0288                 1.5642                 2.3285
 IR Inten    --    393.1117               415.8083               103.6203

                     58                     59                     60
                      A                      A                      A
 Frequencies --   1456.6132              1470.3474              1481.1426
 Red. masses --      1.0362                 1.6047                 1.1495
 Frc consts  --      1.2953                 2.0440                 1.4858
 IR Inten    --     28.6028              1078.2716               115.3536

                     61                     62                     63
                      A                      A                      A
 Frequencies --   1524.9376              1549.7410              1573.2931
 Red. masses --      3.3686                 4.3073                 4.0417
 Frc consts  --      4.6154                 6.0951                 5.8944
 IR Inten    --    159.5522               122.9206               659.8077

                     64                     65                     66
                      A                      A                      A
 Frequencies --   1681.5858              1694.2378              1696.6637
 Red. masses --      1.9842                 6.7982                 1.9416
 Frc consts  --      3.3058                11.4971                 3.2931
 IR Inten    --    483.1774                42.2753               227.0372

                     67                     68                     69
                      A                      A                      A
 Frequencies --   1704.1017              1721.4439              1833.8300
 Red. masses --      2.4690                 1.7546                 7.2428
 Frc consts  --      4.2244                 3.0634                14.3508
 IR Inten    --    284.7468               150.7887               546.1300

                     70                     71                     72
                      A                      A                      A
 Frequencies --   2080.5075              2466.5578              3068.0743
 Red. masses --      1.2457                 1.0658                 1.0343
 Frc consts  --      3.1768                 3.8206                 5.7364
 IR Inten    --    926.7602              2479.1314                37.9402

                     73                     74                     75
                      A                      A                      A
 Frequencies --   3159.7542              3194.1657              3201.7121
 Red. masses --      1.1084                 1.0503                 1.1051
 Frc consts  --      6.5201                 6.3138                 6.6747
 IR Inten    --     10.4775                 8.9718                 0.0193

                     76                     77                     78
                      A                      A                      A
 Frequencies --   3212.5914              3217.0695              3229.4396
 Red. masses --      1.0891                 1.0932                 1.0962
 Frc consts  --      6.6226                 6.6658                 6.7359
 IR Inten    --      1.4067                 1.6567                 1.7959

                     79                     80                     81
                      A                      A                      A
 Frequencies --   3236.7579              3342.2413              3512.6612
 Red. masses --      1.0993                 1.1279                 1.0619
 Frc consts  --      6.7857                 7.4236                 7.7199
 IR Inten    --      6.0330                 6.6595               529.0367

 - Thermochemistry -
 -------------------
 Temperature   298.150 Kelvin.  Pressure   1.00000 Atm.
 Atom     1 has atomic number  7 and mass  14.00307

 Molecular mass:   240.07462 amu.
 Principal axes and moments of inertia in atomic units:
                           1         2         3
     Eigenvalues --  2185.090304879.128315656.26043
           X            0.99992  -0.00392  -0.01201
           Y            0.00399   0.99998   0.00565
           Z            0.01199  -0.00570   0.99991
 This molecule is an asymmetric top.
 Rotational symmetry number  1.
 Warning -- assumption of classical behavior for rotation
           may cause significant error
 Rotational temperatures (Kelvin)      0.03964     0.01775     0.01531
 Rotational constants (GHZ):           0.82593     0.36989     0.31907
    1 imaginary frequencies ignored.
 Zero-point vibrational energy     579434.8 (Joules/Mol)
                                  138.48824 (Kcal/Mol)
 Warning -- explicit consideration of  24 degrees of freedom as
           vibrations may cause significant error
 Vibrational temperatures:     86.14   110.73   129.75   181.40   198.79
          (Kelvin)            204.98   218.42   225.95   288.52   305.38
                              339.77   367.86   433.96   470.37   522.93
                              596.45   667.72   716.10   726.40   785.35
                              804.56   832.92   838.30   886.10   956.04
                              992.14  1024.07  1036.41  1055.86  1080.55
                             1111.18  1128.70  1153.30  1204.47  1260.07
                             1283.75  1297.08  1421.26  1456.86  1493.44
                             1507.53  1532.66  1559.27  1615.77  1620.83
                             1643.38  1648.00  1674.71  1753.79  1853.77
                             1925.48  1946.94  2005.80  2042.36  2061.18
                             2077.64  2095.74  2115.50  2131.03  2194.04
                             2229.73  2263.61  2419.42  2437.63  2441.12
                             2451.82  2476.77  2638.47  2993.38  3548.82
                             4414.27  4546.18  4595.69  4606.54  4622.20
                             4628.64  4646.44  4656.97  4808.73  5053.93

 Zero-point correction=                           0.220695 (Hartree/Particle)
 Thermal correction to Energy=                    0.235803
 Thermal correction to Enthalpy=                  0.236747
 Thermal correction to Gibbs Free Energy=         0.178928
 Sum of electronic and zero-point Energies=           -872.583575
 Sum of electronic and thermal Energies=              -872.568468
 Sum of electronic and thermal Enthalpies=            -872.567523
 Sum of electronic and thermal Free Energies=         -872.625342

                     E (Thermal)             CV                S
                      KCal/Mol        Cal/Mol-Kelvin    Cal/Mol-Kelvin
 Total                  147.968             58.035            121.690
 Electronic               0.000              0.000              0.000
 Translational            0.889              2.981             42.329
 Rotational               0.889              2.981             32.467
 Vibrational            146.191             52.073             46.895
 Vibration     1          0.597              1.973              4.462
 Vibration     2          0.599              1.965              3.967
 Vibration     3          0.602              1.956              3.656
 Vibration     4          0.611              1.927              3.005
 Vibration     5          0.614              1.915              2.829
 Vibration     6          0.616              1.911              2.770
 Vibration     7          0.619              1.901              2.649
 Vibration     8          0.621              1.895              2.585
 Vibration     9          0.638              1.839              2.128
 Vibration    10          0.643              1.822              2.024
 Vibration    11          0.655              1.785              1.832
 Vibration    12          0.666              1.753              1.691
 Vibration    13          0.694              1.671              1.408
 Vibration    14          0.711              1.622              1.275
 Vibration    15          0.737              1.548              1.107
 Vibration    16          0.778              1.439              0.911
 Vibration    17          0.822              1.330              0.754
 Vibration    18          0.853              1.255              0.664
 Vibration    19          0.860              1.239              0.646
 Vibration    20          0.901              1.149              0.553
 Vibration    21          0.915              1.120              0.525
 Vibration    22          0.935              1.077              0.487
 Vibration    23          0.939              1.069              0.480
 Vibration    24          0.975              0.998              0.423

 Normal termination of Gaussian 09 at Thu Oct 29 07:43:06 2020.
