 Gaussian 09, Revision D.01,
 Gaussian 09:  ES64L-G09RevD.01 24-Apr-2013

 ---------------------------------------------------------------
 # opt=tight freq scrf=(cpcm,solvent=nitromethane) def2svp m062x
 ---------------------------------------------------------------

 --------------------------
 MeNO2 + isatin product opt
 --------------------------
 Symbolic Z-matrix:
 Charge =  0 Multiplicity = 1

 SCF Done:  E(RM062X) =  -872.858068176     A.U. after   15 cycles
 SCF Done:  E(RM062X) =  -872.834317555     A.U. after   14 cycles
 SCF Done:  E(RM062X) =  -872.858091120     A.U. after   11 cycles
 SCF Done:  E(RM062X) =  -872.857718955     A.U. after   15 cycles
 SCF Done:  E(RM062X) =  -872.858602495     A.U. after   11 cycles
 SCF Done:  E(RM062X) =  -872.858310704     A.U. after   12 cycles
 SCF Done:  E(RM062X) =  -872.858637111     A.U. after    7 cycles
 SCF Done:  E(RM062X) =  -872.858272683     A.U. after   13 cycles
 SCF Done:  E(RM062X) =  -872.858737626     A.U. after   10 cycles
 SCF Done:  E(RM062X) =  -872.858164172     A.U. after   12 cycles
 SCF Done:  E(RM062X) =  -872.858882314     A.U. after    9 cycles
 SCF Done:  E(RM062X) =  -872.858882534     A.U. after    7 cycles
 SCF Done:  E(RM062X) =  -872.858882665     A.U. after    8 cycles
 SCF Done:  E(RM062X) =  -872.858882739     A.U. after    7 cycles
 SCF Done:  E(RM062X) =  -872.858882798     A.U. after    7 cycles
 SCF Done:  E(RM062X) =  -872.858882817     A.U. after    5 cycles
 SCF Done:  E(RM062X) =  -872.858882822     A.U. after    5 cycles
 SCF Done:  E(RM062X) =  -872.858882823     A.U. after    4 cycles
 SCF Done:  E(RM062X) =  -872.858882823     A.U. after    4 cycles
 Optimization completed.
    -- Stationary point found.
 Normal termination of Gaussian 09 at Tue Aug 24 16:04:14 2021.

 -------------------------------------------------------------------
 #N Geom=AllCheck Guess=TCheck SCRF=Check GenChk RM062X/def2SVP Freq
 -------------------------------------------------------------------

 Structure from the checkpoint file:  "MeNO2_isatin_product_opt.chk"
 --------------------------
 MeNO2 + isatin product opt
 --------------------------
 Charge =  0 Multiplicity = 1

                         Standard orientation:
 ---------------------------------------------------------------------
 Center     Atomic      Atomic             Coordinates (Angstroms)
 Number     Number       Type             X           Y           Z
 ---------------------------------------------------------------------
      1          7           0       -2.406580   -0.800528   -0.975184
      2          8           0       -2.827486    0.230572   -1.441321
      3          8           0       -3.087792   -1.638081   -0.430578
      4          6           0       -0.933563   -1.026138   -0.990699
      5          1           0       -0.544160   -0.587363   -1.915577
      6          1           0       -0.788485   -2.110503   -0.957199
      7          1           0       -3.911247    0.055306    0.923050
      8          6           0        3.939181   -0.708932   -0.100934
      9          6           0        3.259741    0.509482   -0.232736
     10          6           0        1.880827    0.487502   -0.074485
     11          6           0        1.190641   -0.698548    0.197038
     12          6           0        1.867465   -1.898216    0.326666
     13          6           0        3.261770   -1.895949    0.178877
     14          1           0        5.023857   -0.723916   -0.216948
     15          1           0        3.795711    1.434795   -0.443887
     16          1           0        1.328428   -2.822194    0.545114
     17          1           0        3.819273   -2.826994    0.283082
     18          6           0       -0.287147   -0.393598    0.267734
     19          6           0       -0.285932    1.163032    0.160910
     20          7           0        0.984121    1.566629   -0.121423
     21          8           0       -1.240682    1.896277    0.325091
     22          8           0       -0.872241   -0.845337    1.438743
     23          6           0        1.378734    2.948154   -0.281620
     24          1           0        2.066251    3.247607    0.522334
     25          1           0        1.871567    3.093810   -1.252513
     26          1           0        0.473374    3.562833   -0.235098
     27          8           0       -3.243895    0.441563    1.506953
     28          1           0       -1.780083   -0.461862    1.528520
     29          1           0       -2.850811    1.175102    0.999747
 ---------------------------------------------------------------------

 SCF Done:  E(RM062X) =  -872.858882822     A.U. after    1 cycles

 The electronic state is 1-A.
 Alpha  occ. eigenvalues --  -19.68398 -19.68338 -19.64075 -19.63885 -19.63735
 Alpha  occ. eigenvalues --  -15.01753 -14.82220 -10.68390 -10.65277 -10.62646
 Alpha  occ. eigenvalues --  -10.61570 -10.59806 -10.57729 -10.57627 -10.57336
 Alpha  occ. eigenvalues --  -10.57268 -10.56587  -1.38004  -1.19227  -1.19010
 Alpha  occ. eigenvalues --   -1.14877  -1.11576  -1.08940  -0.96556  -0.93902
 Alpha  occ. eigenvalues --   -0.88713  -0.85215  -0.81568  -0.78577  -0.71376
 Alpha  occ. eigenvalues --   -0.70516  -0.68699  -0.67215  -0.65605  -0.64185
 Alpha  occ. eigenvalues --   -0.62990  -0.62280  -0.60648  -0.59123  -0.56951
 Alpha  occ. eigenvalues --   -0.55868  -0.54622  -0.54016  -0.52156  -0.52019
 Alpha  occ. eigenvalues --   -0.51058  -0.50797  -0.48545  -0.47080  -0.46855
 Alpha  occ. eigenvalues --   -0.46169  -0.44831  -0.43745  -0.42153  -0.41052
 Alpha  occ. eigenvalues --   -0.40746  -0.39864  -0.39404  -0.38069  -0.37313
 Alpha  occ. eigenvalues --   -0.34529  -0.32431  -0.28419
 Alpha virt. eigenvalues --   -0.03645  -0.00055   0.01106   0.05352   0.09885
 Alpha virt. eigenvalues --    0.11115   0.11596   0.13349   0.14301   0.15324
 Alpha virt. eigenvalues --    0.16428   0.16595   0.17785   0.18500   0.18832

 Mulliken charges:
               1
     1  N    0.170055
     2  O   -0.259688
     3  O   -0.270347
     4  C    0.269192
     5  H    0.094676
     6  H    0.088049
     7  H    0.201330
     8  C   -0.017768
     9  C   -0.091098
    10  C    0.201995
    11  C   -0.015558
    12  C   -0.052748
    13  C   -0.029025
    14  H    0.048584
    15  H    0.029357
    16  H    0.040575
    17  H    0.042551
    18  C   -0.112285
    19  C    0.290952
    20  N   -0.332077
    21  O   -0.301851
    22  O   -0.337514
    23  C    0.056576
    24  H    0.082915
    25  H    0.083984
    26  H    0.083863
    27  O   -0.366445
    28  H    0.197734
    29  H    0.204014
 Sum of Mulliken charges =   0.00000

 Dipole moment (field-independent basis, Debye):
    X=              6.8199    Y=              0.6070    Z=             -3.8059  Tot=              7.8335
 Quadrupole moment (field-independent basis, Debye-Ang):
   XX=            -96.1425   YY=            -89.6750   ZZ=           -104.9021
   XY=              3.8782   XZ=              1.0233   YZ=              1.6509

  Exact polarizability: 221.545 -10.307 190.239 -10.104 -15.781 104.177
 Approx polarizability: 200.709  -7.975 192.043 -11.146 -20.893 111.086

                      1                      2                      3
                      A                      A                      A
 Frequencies --     46.2115                74.8175                88.2733
 Red. masses --      6.2490                 7.5258                 6.2716
 Frc consts  --      0.0079                 0.0248                 0.0288
 IR Inten    --      0.6239                 2.0822                 3.6755

                      4                      5                      6
                      A                      A                      A
 Frequencies --    116.9467               131.8841               148.6610
 Red. masses --      5.5768                 3.3707                 7.1254
 Frc consts  --      0.0449                 0.0345                 0.0928
 IR Inten    --      3.8890                 1.6021                26.9946

                      7                      8                      9
                      A                      A                      A
 Frequencies --    159.6741               162.2380               169.9742
 Red. masses --      4.1474                 1.1062                 7.5248
 Frc consts  --      0.0623                 0.0172                 0.1281
 IR Inten    --      7.1157                 0.3235                 0.0454

                     10                     11                     12
                      A                      A                      A
 Frequencies --    193.9163               209.7830               248.7678
 Red. masses --      6.4694                 6.2513                 3.8599
 Frc consts  --      0.1433                 0.1621                 0.1407
 IR Inten    --      0.9796                 4.1062                 3.3792

                     13                     14                     15
                      A                      A                      A
 Frequencies --    282.9088               301.2690               324.0710
 Red. masses --      5.2293                 4.4432                 2.1864
 Frc consts  --      0.2466                 0.2376                 0.1353
 IR Inten    --      2.8198                28.1155                28.3921

                     16                     17                     18
                      A                      A                      A
 Frequencies --    345.7231               358.1560               400.9511
 Red. masses --      1.7788                 4.9491                 5.3932
 Frc consts  --      0.1253                 0.3740                 0.5108
 IR Inten    --     44.9848                22.8799                28.1577

                     19                     20                     21
                      A                      A                      A
 Frequencies --    483.7921               489.0694               498.1111
 Red. masses --      1.2954                 2.4942                 7.0564
 Frc consts  --      0.1786                 0.3515                 1.0315
 IR Inten    --    234.4737                72.4446                 8.0437

                     22                     23                     24
                      A                      A                      A
 Frequencies --    505.6820               546.9830               574.3886
 Red. masses --      2.3709                 4.8686                 2.9609
 Frc consts  --      0.3572                 0.8582                 0.5756
 IR Inten    --      1.0751                16.5320                87.1429

                     25                     26                     27
                      A                      A                      A
 Frequencies --    582.6985               601.6386               672.4362
 Red. masses --      3.5295                 1.4157                 5.5260
 Frc consts  --      0.7061                 0.3019                 1.4722
 IR Inten    --     20.8145               545.6916                54.1042

                     28                     29                     30
                      A                      A                      A
 Frequencies --    701.9469               723.3515               752.7985
 Red. masses --      5.3014                 5.5074                 4.5923
 Frc consts  --      1.5390                 1.6978                 1.5333
 IR Inten    --      7.6415                 2.1896                17.3428

                     31                     32                     33
                      A                      A                      A
 Frequencies --    782.6323               791.1534               822.1336
 Red. masses --      1.3654                 4.1628                 6.3426
 Frc consts  --      0.4927                 1.5352                 2.5258
 IR Inten    --     89.7648                 3.7529                22.4353

                     34                     35                     36
                      A                      A                      A
 Frequencies --    858.3334               899.1703               907.3468
 Red. masses --      1.0723                 3.1325                 1.5523
 Frc consts  --      0.4655                 1.4922                 0.7530
 IR Inten    --    164.8793                 5.3764                 1.3583

                     37                     38                     39
                      A                      A                      A
 Frequencies --    940.2429               976.1040               991.1033
 Red. masses --      2.7107                 3.1849                 1.6997
 Frc consts  --      1.4119                 1.7879                 0.9837
 IR Inten    --      4.4656                 3.4960                11.0255

                     40                     41                     42
                      A                      A                      A
 Frequencies --   1010.7784              1035.4511              1049.8786
 Red. masses --      5.5646                 1.3356                 2.2302
 Frc consts  --      3.3497                 0.8437                 1.4484
 IR Inten    --     36.7654                 0.0444                 3.9506

                     43                     44                     45
                      A                      A                      A
 Frequencies --   1060.5566              1105.8303              1134.1819
 Red. masses --      2.3836                 2.0651                 2.1904
 Frc consts  --      1.5796                 1.4878                 1.6601
 IR Inten    --     34.1721                54.3301                 8.1155

                     46                     47                     48
                      A                      A                      A
 Frequencies --   1140.8413              1147.9168              1159.9962
 Red. masses --      1.3748                 1.8537                 1.1883
 Frc consts  --      1.0543                 1.4392                 0.9421
 IR Inten    --      4.5245                70.5060                29.3244

                     49                     50                     51
                      A                      A                      A
 Frequencies --   1187.8704              1232.7217              1282.7635
 Red. masses --      2.8677                 1.5603                 1.7522
 Frc consts  --      2.3841                 1.3969                 1.6988
 IR Inten    --     39.0974                17.3744                21.8756

                     52                     53                     54
                      A                      A                      A
 Frequencies --   1313.0511              1335.9749              1351.7178
 Red. masses --      1.9254                 1.5856                 3.6585
 Frc consts  --      1.9558                 1.6674                 3.9384
 IR Inten    --    138.4035               112.7875                33.1774

                     55                     56                     57
                      A                      A                      A
 Frequencies --   1407.9720              1421.4600              1424.7164
 Red. masses --      3.3459                 1.3988                 1.0995
 Frc consts  --      3.9079                 1.6653                 1.3149
 IR Inten    --     40.7622                48.3340                13.3216

                     58                     59                     60
                      A                      A                      A
 Frequencies --   1454.3581              1460.7465              1473.6481
 Red. masses --      2.5608                 1.0395                 1.3421
 Frc consts  --      3.1913                 1.3068                 1.7172
 IR Inten    --     94.0148                22.7809                67.0664

                     61                     62                     63
                      A                      A                      A
 Frequencies --   1487.5671              1523.5572              1543.8174
 Red. masses --      1.3385                 2.9939                10.7602
 Frc consts  --      1.7451                 4.0946                15.1100
 IR Inten    --     92.4247               183.5720               126.6020

                     64                     65                     66
                      A                      A                      A
 Frequencies --   1561.4203              1596.2531              1702.5827
 Red. masses --      4.3465                 1.1227                 7.7903
 Frc consts  --      6.2435                 1.6855                13.3051
 IR Inten    --    116.8370                89.5450                27.3191

                     67                     68                     69
                      A                      A                      A
 Frequencies --   1714.4865              1762.6995              1835.5792
 Red. masses --      7.8049                10.2653                11.4583
 Frc consts  --     13.5172                18.7922                22.7466
 IR Inten    --    203.1263               536.9552               829.8892

                     70                     71                     72
                      A                      A                      A
 Frequencies --   3066.9282              3137.2690              3157.7631
 Red. masses --      1.0353                 1.0581                 1.1075
 Frc consts  --      5.7376                 6.1362                 6.5065
 IR Inten    --     36.0469                 0.5492                11.0897

                     73                     74                     75
                      A                      A                      A
 Frequencies --   3204.5081              3209.6565              3218.0127
 Red. masses --      1.1051                 1.0902                 1.0916
 Frc consts  --      6.6859                 6.6169                 6.6604
 IR Inten    --      0.0807                 0.5894                 3.2610

                     76                     77                     78
                      A                      A                      A
 Frequencies --   3229.3086              3229.5784              3236.1253
 Red. masses --      1.0988                 1.1126                 1.0992
 Frc consts  --      6.7516                 6.8372                 6.7825
 IR Inten    --      4.3056                 5.2241                 2.2145

                     79                     80                     81
                      A                      A                      A
 Frequencies --   3340.6680              3706.6167              3884.2514
 Red. masses --      1.0724                 1.0572                 1.0714
 Frc consts  --      7.0511                 8.5581                 9.5238
 IR Inten    --   1261.2919               463.0050               177.9001

 - Thermochemistry -
 -------------------
 Temperature   298.150 Kelvin.  Pressure   1.00000 Atm.
 Atom     1 has atomic number  7 and mass  14.00307

 Molecular mass:   240.07462 amu.
 Principal axes and moments of inertia in atomic units:
                           1         2         3
     Eigenvalues --  2162.615794996.211916094.73249
           X            0.99996   0.00090  -0.00879
           Y           -0.00097   0.99997  -0.00703
           Z            0.00878   0.00704   0.99994
 This molecule is an asymmetric top.
 Rotational symmetry number  1.
 Warning -- assumption of classical behavior for rotation
           may cause significant error
 Rotational temperatures (Kelvin)      0.04005     0.01734     0.01421
 Rotational constants (GHZ):           0.83452     0.36122     0.29611
 Zero-point vibrational energy     594582.4 (Joules/Mol)
                                  142.10862 (Kcal/Mol)
 Warning -- explicit consideration of  26 degrees of freedom as
           vibrations may cause significant error
 Vibrational temperatures:     66.49   107.65   127.01   168.26   189.75
          (Kelvin)            213.89   229.74   233.42   244.55   279.00
                              301.83   357.92   407.04   433.46   466.27
                              497.42   515.31   576.88   696.07   703.66
                              716.67   727.56   786.99   826.42   838.37
                              865.62   967.48  1009.94  1040.74  1083.11
                             1126.03  1138.29  1182.87  1234.95  1293.70
                             1305.47  1352.80  1404.39  1425.97  1454.28
                             1489.78  1510.54  1525.90  1591.04  1631.83
                             1641.41  1651.59  1668.97  1709.08  1773.61
                             1845.61  1889.19  1922.17  1944.82  2025.76
                             2045.16  2049.85  2092.49  2101.69  2120.25
                             2140.27  2192.06  2221.21  2246.53  2296.65
                             2449.63  2466.76  2536.13  2640.99  4412.62
                             4513.82  4543.31  4610.57  4617.97  4630.00
                             4646.25  4646.64  4656.06  4806.47  5332.99
                             5588.56

 Zero-point correction=                           0.226464 (Hartree/Particle)
 Thermal correction to Energy=                    0.242393
 Thermal correction to Enthalpy=                  0.243337
 Thermal correction to Gibbs Free Energy=         0.183725
 Sum of electronic and zero-point Energies=           -872.632418
 Sum of electronic and thermal Energies=              -872.616490
 Sum of electronic and thermal Enthalpies=            -872.615546
 Sum of electronic and thermal Free Energies=         -872.675158

                     E (Thermal)             CV                S
                      KCal/Mol        Cal/Mol-Kelvin    Cal/Mol-Kelvin
 Total                  152.104             60.244            125.464
 Electronic               0.000              0.000              0.000
 Translational            0.889              2.981             42.329
 Rotational               0.889              2.981             32.554
 Vibrational            150.326             54.282             50.581
 Vibration     1          0.595              1.979              4.973
 Vibration     2          0.599              1.966              4.022
 Vibration     3          0.601              1.957              3.698
 Vibration     4          0.608              1.935              3.150
 Vibration     5          0.612              1.921              2.918
 Vibration     6          0.618              1.904              2.689
 Vibration     7          0.622              1.892              2.554
 Vibration     8          0.622              1.889              2.524
 Vibration     9          0.625              1.879              2.436
 Vibration    10          0.635              1.848              2.190
 Vibration    11          0.642              1.826              2.046
 Vibration    12          0.662              1.765              1.739
 Vibration    13          0.682              1.705              1.516
 Vibration    14          0.693              1.671              1.410
 Vibration    15          0.709              1.627              1.289
 Vibration    16          0.724              1.584              1.186
 Vibration    17          0.733              1.558              1.130
 Vibration    18          0.767              1.468              0.959
 Vibration    19          0.840              1.286              0.700
 Vibration    20          0.845              1.274              0.686
 Vibration    21          0.854              1.254              0.663
 Vibration    22          0.861              1.237              0.644
 Vibration    23          0.902              1.146              0.550
 Vibration    24          0.931              1.087              0.496
 Vibration    25          0.940              1.069              0.480
 Vibration    26          0.960              1.028              0.447

 Optimization completed.
    -- Stationary point found.
 Normal termination of Gaussian 09 at Tue Aug 24 16:22:02 2021.
