 Gaussian 09, Revision D.01,
 Gaussian 09:  ES64L-G09RevD.01 24-Apr-2013

 ----------------------------------------------------------------------
 # freq scrf=(cpcm,solvent=water) geom=connectivity def2svp empiricaldi
 spersion=gd3 m062x
 ----------------------------------------------------------------------

 -------------------
 Title Card Required
 -------------------
 Symbolic Z-matrix:
 Charge =  0 Multiplicity = 1

                         Standard orientation:
 ---------------------------------------------------------------------
 Center     Atomic      Atomic             Coordinates (Angstroms)
 Number     Number       Type             X           Y           Z
 ---------------------------------------------------------------------
      1          6           0       -0.830191    0.996961    1.056956
      2          6           0       -2.106487    1.419263    0.269464
      3          6           0       -0.454284    2.870095   -0.409408
      4          6           0        0.149579    2.108595    0.742576
      5          1           0       -0.841734    0.430830    1.985650
      6          1           0        1.197959    2.118235    1.031993
      7          6           0       -1.593826    2.064553   -1.008632
      8          1           0       -2.367137    2.699039   -1.463825
      9          1           0       -1.239912    1.323441   -1.737468
     10          6           0       -1.913873    2.344616    1.363715
     11          1           0       -2.417944    2.303551    2.327252
     12          6           0       -0.816429    3.277034    0.983717
     13          1           0       -0.558899    4.204568    1.487467
     14          1           0       -2.934775    0.710555    0.259489
     15          1           0        0.194438    3.509805   -1.005454
     16          7           0        0.728911   -0.024347   -0.921379
     17          7           0       -0.012621   -0.510607    0.011310
     18          6           0        2.037619    0.219144   -0.520961
     19          6           0       -1.181951   -1.178911   -0.460606
     20          8           0       -1.426509   -1.408842   -1.617758
     21          8           0        2.858514    0.685044   -1.286189
     22          8           0       -1.920420   -1.554396    0.565637
     23          8           0        2.331054   -0.118009    0.741572
     24          6           0        3.651618    0.177373    1.188332
     25          1           0        3.760858   -0.303977    2.164897
     26          1           0        4.395060   -0.203329    0.478572
     27          1           0        3.778114    1.264867    1.291863
     28          6           0       -2.972187   -2.473561    0.276136
     29          1           0       -3.685379   -2.025507   -0.426727
     30          1           0       -2.534819   -3.389669   -0.141162
     31          1           0       -3.460077   -2.682408    1.232490
     32          8           0        0.067946   -3.601460    0.192917
     33          1           0        0.201192   -3.148664    1.047987
     34          1           0        0.804491   -3.278784   -0.339832
     35          8           0       -3.961471   -0.115489   -1.764483
     36          1           0       -4.058159    0.657191   -2.333422
     37          1           0       -3.143854   -0.539259   -2.066791
     38          8           0        0.563733   -1.907333    2.378880
     39          1           0        1.480940   -1.932535    2.677855
     40          1           0        0.577328   -1.277477    1.628599
     41          8           0        5.502875   -0.301272   -1.619972
     42          1           0        4.643307    0.150521   -1.589033
     43          1           0        5.251666   -1.223238   -1.752485
 ---------------------------------------------------------------------

 SCF Done:  E(RM062X) =  -1142.23619385     A.U. after   16 cycles

 The electronic state is 1-A.
 Alpha  occ. eigenvalues --  -19.68735 -19.68431 -19.63953 -19.62648 -19.62226
 Alpha  occ. eigenvalues --  -19.61909 -19.60871 -19.60728 -14.83843 -14.78960
 Alpha  occ. eigenvalues --  -10.72216 -10.70835 -10.62139 -10.61622 -10.60783
 Alpha  occ. eigenvalues --  -10.60620 -10.59948 -10.59550 -10.58965 -10.58481
 Alpha  occ. eigenvalues --  -10.56891  -1.24975  -1.23634  -1.15053  -1.13235
 Alpha  occ. eigenvalues --   -1.11901  -1.10025  -1.09972  -1.08822  -1.08388
 Alpha  occ. eigenvalues --   -1.08257  -0.90919  -0.89328  -0.84408  -0.82321
 Alpha  occ. eigenvalues --   -0.78864  -0.77803  -0.67736  -0.67336  -0.65251
 Alpha  occ. eigenvalues --   -0.64953  -0.64500  -0.63415  -0.62978  -0.61256
 Alpha  occ. eigenvalues --   -0.60442  -0.59152  -0.58311  -0.57953  -0.57538
 Alpha  occ. eigenvalues --   -0.56731  -0.56259  -0.54453  -0.54147  -0.53126
 Alpha  occ. eigenvalues --   -0.51965  -0.50731  -0.49850  -0.48763  -0.48304
 Alpha  occ. eigenvalues --   -0.48120  -0.46492  -0.46037  -0.45690  -0.45154
 Alpha  occ. eigenvalues --   -0.45130  -0.43972  -0.43492  -0.43484  -0.43230
 Alpha  occ. eigenvalues --   -0.41191  -0.39011  -0.38771  -0.38541  -0.38233
 Alpha  occ. eigenvalues --   -0.38182  -0.37810  -0.37510  -0.37087  -0.36735
 Alpha  occ. eigenvalues --   -0.36571  -0.32013  -0.25800
 Alpha virt. eigenvalues --   -0.08025   0.05186   0.07160   0.07503   0.09306
 Alpha virt. eigenvalues --    0.09930   0.10788   0.11789   0.12730   0.13050
 Alpha virt. eigenvalues --    0.14438   0.14943   0.15452   0.16118   0.16474

 Mulliken charges:
               1
     1  C   -0.063383
     2  C   -0.195074
     3  C   -0.140342
     4  C   -0.093245
     5  H    0.099100
     6  H    0.082560
     7  C    0.222883
     8  H    0.076216
     9  H    0.062485
    10  C    0.119247
    11  H    0.099441
    12  C   -0.022476
    13  H    0.076246
    14  H    0.076539
    15  H    0.079673
    16  N   -0.201012
    17  N   -0.245369
    18  C    0.311025
    19  C    0.331894
    20  O   -0.284413
    21  O   -0.333438
    22  O   -0.332938
    23  O   -0.371264
    24  C    0.122407
    25  H    0.069532
    26  H    0.024729
    27  H    0.064614
    28  C    0.120395
    29  H    0.054703
    30  H    0.061553
    31  H    0.070663
    32  O   -0.364294
    33  H    0.167087
    34  H    0.179519
    35  O   -0.345631
    36  H    0.195887
    37  H    0.188552
    38  O   -0.375830
    39  H    0.196971
    40  H    0.211226
    41  O   -0.370592
    42  H    0.187273
    43  H    0.186881
 Sum of Mulliken charges =   0.00000

 Dipole moment (field-independent basis, Debye):
    X=             -3.9383    Y=              7.0147    Z=              6.1009  Tot=             10.0964
 Quadrupole moment (field-independent basis, Debye-Ang):
   XX=           -138.7968   YY=           -117.0786   ZZ=           -123.6996
   XY=            -18.1736   XZ=             14.6937   YZ=              6.0663

  Exact polarizability: 272.214 -49.329 256.794 -38.413  37.717 208.064
 Approx polarizability: 245.614 -45.377 234.314 -48.676  41.777 219.420

 ******    1 imaginary frequencies (negative Signs) ******

                      1                      2                      3
                      A                      A                      A
 Frequencies --   -598.5349                23.2538                29.5918
 Red. masses --      8.5716                 6.0618                 6.4149
 Frc consts  --      1.8092                 0.0019                 0.0033
 IR Inten    --   3709.5096                 2.4489                 1.4124

                      4                      5                      6
                      A                      A                      A
 Frequencies --     47.7122                51.2807                61.4933
 Red. masses --      5.4927                 4.8399                 4.2047
 Frc consts  --      0.0074                 0.0075                 0.0094
 IR Inten    --      0.7561                 0.1501                 1.7128

                      7                      8                      9
                      A                      A                      A
 Frequencies --     73.8362                77.5163                88.8437
 Red. masses --      6.4353                 5.1828                 5.9867
 Frc consts  --      0.0207                 0.0183                 0.0278
 IR Inten    --      0.1162                 0.6756                 3.6357

                     10                     11                     12
                      A                      A                      A
 Frequencies --     94.7722               105.0691               113.0566
 Red. masses --      5.4156                 6.2235                 6.6650
 Frc consts  --      0.0287                 0.0405                 0.0502
 IR Inten    --     19.6149                 5.9358                 3.9183

                     13                     14                     15
                      A                      A                      A
 Frequencies --    130.4842               136.2058               154.5555
 Red. masses --      6.9783                 4.7069                 4.1090
 Frc consts  --      0.0700                 0.0514                 0.0578
 IR Inten    --     13.0176                11.1424                 9.1335

                     16                     17                     18
                      A                      A                      A
 Frequencies --    155.5768               173.1293               176.7551
 Red. masses --      4.8801                 4.7919                 3.7740
 Frc consts  --      0.0696                 0.0846                 0.0695
 IR Inten    --     28.3002                34.4462                21.2438

                     19                     20                     21
                      A                      A                      A
 Frequencies --    187.9438               196.1199               203.8766
 Red. masses --      2.3075                 4.2114                 2.8134
 Frc consts  --      0.0480                 0.0954                 0.0689
 IR Inten    --     38.2587                13.7334                 1.7310

                     22                     23                     24
                      A                      A                      A
 Frequencies --    207.6027               219.7688               224.0069
 Red. masses --      2.2841                 3.4510                 1.5233
 Frc consts  --      0.0580                 0.0982                 0.0450
 IR Inten    --      5.4005                10.9188                 2.2445

                     25                     26                     27
                      A                      A                      A
 Frequencies --    249.8600               264.4172               268.3975
 Red. masses --      1.8753                 1.0813                 1.2711
 Frc consts  --      0.0690                 0.0445                 0.0539
 IR Inten    --     11.8653               222.8316                96.3184

                     28                     29                     30
                      A                      A                      A
 Frequencies --    283.4930               293.9362               294.8779
 Red. masses --      1.4343                 1.4571                 1.4448
 Frc consts  --      0.0679                 0.0742                 0.0740
 IR Inten    --     48.1198                90.4358               136.2721

                     31                     32                     33
                      A                      A                      A
 Frequencies --    311.6841               330.3079               343.2251
 Red. masses --      3.1111                 1.5752                 1.2774
 Frc consts  --      0.1781                 0.1013                 0.0887
 IR Inten    --    103.7165               135.4443                90.1886

                     34                     35                     36
                      A                      A                      A
 Frequencies --    353.1494               365.1422               373.0260
 Red. masses --      2.8036                 1.2220                 2.1658
 Frc consts  --      0.2060                 0.0960                 0.1776
 IR Inten    --     26.4665                99.1997                66.1691

                     37                     38                     39
                      A                      A                      A
 Frequencies --    382.3403               434.4870               450.6864
 Red. masses --      1.1544                 1.9029                 5.1573
 Frc consts  --      0.0994                 0.2117                 0.6172
 IR Inten    --    107.0028                15.5659                 4.3343

                     40                     41                     42
                      A                      A                      A
 Frequencies --    470.1593               502.3672               532.7958
 Red. masses --      3.8627                 1.2609                 3.0086
 Frc consts  --      0.5031                 0.1875                 0.5032
 IR Inten    --    143.3829               293.2837                 0.8719

                     43                     44                     45
                      A                      A                      A
 Frequencies --    626.9230               631.8578               638.5878
 Red. masses --      1.1276                 5.2165                 4.0722
 Frc consts  --      0.2611                 1.2271                 0.9784
 IR Inten    --    240.9034               129.2755                19.3830

                     46                     47                     48
                      A                      A                      A
 Frequencies --    666.3138               693.8555               726.1517
 Red. masses --      1.1154                 5.1460                 5.5152
 Frc consts  --      0.2918                 1.4597                 1.7134
 IR Inten    --    349.4950                21.7846                45.7735

                     49                     50                     51
                      A                      A                      A
 Frequencies --    752.9951               777.2991               792.5489
 Red. masses --      3.4434                 4.7202                 3.2994
 Frc consts  --      1.1503                 1.6803                 1.2211
 IR Inten    --    136.0198                26.9540                16.4530

                     52                     53                     54
                      A                      A                      A
 Frequencies --    805.4005               813.6378               830.1766
 Red. masses --      2.5795                 2.0406                 3.5485
 Frc consts  --      0.9859                 0.7959                 1.4409
 IR Inten    --    119.5816                31.6264                55.7443

                     55                     56                     57
                      A                      A                      A
 Frequencies --    837.3170               854.4642               857.9101
 Red. masses --      1.7908                 1.2361                 1.5577
 Frc consts  --      0.7397                 0.5317                 0.6755
 IR Inten    --     24.6418               100.1939                66.5156

                     58                     59                     60
                      A                      A                      A
 Frequencies --    892.0011               928.4405               946.4743
 Red. masses --      2.6187                 1.6424                 1.9329
 Frc consts  --      1.2276                 0.8341                 1.0202
 IR Inten    --    209.6746                22.4328                27.4390

                     61                     62                     63
                      A                      A                      A
 Frequencies --    950.8442               965.2415               973.2520
 Red. masses --      3.5200                 1.6606                 1.3537
 Frc consts  --      1.8750                 0.9116                 0.7555
 IR Inten    --      7.8616                23.8139                28.8767

                     64                     65                     66
                      A                      A                      A
 Frequencies --   1012.7461              1020.9872              1043.4642
 Red. masses --      2.3515                 2.3997                 1.3429
 Frc consts  --      1.4210                 1.4738                 0.8615
 IR Inten    --     21.3583                37.6587                 4.3912

                     67                     68                     69
                      A                      A                      A
 Frequencies --   1045.1998              1052.3162              1068.6105
 Red. masses --      1.5137                 1.2084                 1.5317
 Frc consts  --      0.9743                 0.7884                 1.0306
 IR Inten    --     29.2261                14.7044                13.8470

                     70                     71                     72
                      A                      A                      A
 Frequencies --   1078.4318              1103.9454              1128.4115
 Red. masses --      1.9182                 1.4781                 5.4647
 Frc consts  --      1.3144                 1.0613                 4.0997
 IR Inten    --      6.8090                43.5341                10.0271

                     73                     74                     75
                      A                      A                      A
 Frequencies --   1157.0267              1174.9948              1184.8090
 Red. masses --      7.3754                 1.2219                 1.2798
 Frc consts  --      5.8173                 0.9939                 1.0585
 IR Inten    --    156.7623                23.0507                 1.4746

                     76                     77                     78
                      A                      A                      A
 Frequencies --   1191.6196              1226.9678              1233.2826
 Red. masses --      1.2891                 1.5321                 1.5442
 Frc consts  --      1.0785                 1.3590                 1.3838
 IR Inten    --     18.3787                43.5560               128.9486

                     79                     80                     81
                      A                      A                      A
 Frequencies --   1234.7405              1243.2857              1297.1363
 Red. masses --      1.5552                 1.3497                 3.0815
 Frc consts  --      1.3970                 1.2292                 3.0548
 IR Inten    --     16.5163                21.2595               463.7782

                     82                     83                     84
                      A                      A                      A
 Frequencies --   1308.9860              1316.2284              1334.1075
 Red. masses --      3.7219                 2.2786                 5.0584
 Frc consts  --      3.7574                 2.3259                 5.3045
 IR Inten    --    874.1738                47.8421              1218.5361

                     85                     86                     87
                      A                      A                      A
 Frequencies --   1361.2595              1397.2180              1432.1645
 Red. masses --      2.4804                 4.5036                 2.4736
 Frc consts  --      2.7081                 5.1801                 2.9893
 IR Inten    --     19.0091                92.0797                12.7816

                     88                     89                     90
                      A                      A                      A
 Frequencies --   1446.0466              1464.1994              1466.9191
 Red. masses --      1.3776                 1.2002                 1.1619
 Frc consts  --      1.6972                 1.5160                 1.4730
 IR Inten    --    138.6262                78.2374               110.3790

                     91                     92                     93
                      A                      A                      A
 Frequencies --   1472.3852              1477.4614              1486.7033
 Red. masses --      1.1091                 3.2400                 1.1245
 Frc consts  --      1.4167                 4.1670                 1.4644
 IR Inten    --     50.4822               752.0573                40.3070

                     94                     95                     96
                      A                      A                      A
 Frequencies --   1497.2040              1500.1057              1611.1296
 Red. masses --      1.2305                 1.0617                 1.0848
 Frc consts  --      1.6251                 1.4077                 1.6591
 IR Inten    --     26.5162                31.2625               142.4726

                     97                     98                     99
                      A                      A                      A
 Frequencies --   1617.3669              1647.4549              1648.5064
 Red. masses --      1.0821                 1.0762                 1.0824
 Frc consts  --      1.6677                 1.7209                 1.7330
 IR Inten    --    148.6307               203.5233               106.8392

                    100                    101                    102
                      A                      A                      A
 Frequencies --   1803.2167              1850.4962              3080.1943
 Red. masses --     11.0476                11.0293                 1.0346
 Frc consts  --     21.1648                22.2524                 5.7831
 IR Inten    --   1303.6358               612.4384                34.2928

                    103                    104                    105
                      A                      A                      A
 Frequencies --   3089.6767              3100.7516              3175.4547
 Red. masses --      1.0302                 1.0628                 1.1072
 Frc consts  --      5.7942                 6.0203                 6.5781
 IR Inten    --     34.9353                22.3949                 0.3713

                    106                    107                    108
                      A                      A                      A
 Frequencies --   3184.3843              3200.7883              3219.6167
 Red. masses --      1.1036                 1.1093                 1.1094
 Frc consts  --      6.5934                 6.6960                 6.7754
 IR Inten    --     17.5258                 1.7470                 6.3277

                    109                    110                    111
                      A                      A                      A
 Frequencies --   3223.7509              3232.9203              3246.8499
 Red. masses --      1.1103                 1.0947                 1.0951
 Frc consts  --      6.7985                 6.7415                 6.8016
 IR Inten    --      3.1021                19.7772                 0.4389

                    112                    113                    114
                      A                      A                      A
 Frequencies --   3256.4543              3262.6183              3265.7372
 Red. masses --      1.0914                 1.0966                 1.0948
 Frc consts  --      6.8191                 6.8774                 6.8794
 IR Inten    --      4.8590                15.2870                22.0004

                    115                    116                    117
                      A                      A                      A
 Frequencies --   3273.7472              3564.9099              3661.0584
 Red. masses --      1.1027                 1.0625                 1.0599
 Frc consts  --      6.9628                 7.9555                 8.3701
 IR Inten    --     17.2394               974.2880               638.5877

                    118                    119                    120
                      A                      A                      A
 Frequencies --   3753.8796              3806.5261              3905.8773
 Red. masses --      1.0570                 1.0515                 1.0680
 Frc consts  --      8.7755                 8.9770                 9.5995
 IR Inten    --    737.8662               119.2850                84.7342

                    121                    122                    123
                      A                      A                      A
 Frequencies --   3909.5983              3912.5074              3926.8469
 Red. masses --      1.0675                 1.0707                 1.0767
 Frc consts  --      9.6137                 9.6571                 9.7820
 IR Inten    --    118.2608               151.3204               153.5053

 - Thermochemistry -
 -------------------
 Temperature   298.150 Kelvin.  Pressure   1.00000 Atm.
 Atom     1 has atomic number  6 and mass  12.00000

 Molecular mass:   310.13762 amu.
 Principal axes and moments of inertia in atomic units:
                           1         2         3
     Eigenvalues --  5002.974347656.090119635.08078
           X            0.99994  -0.00071   0.01130
           Y            0.00080   0.99997  -0.00719
           Z           -0.01130   0.00720   0.99991
 This molecule is an asymmetric top.
 Rotational symmetry number  1.
 Warning -- assumption of classical behavior for rotation
           may cause significant error
 Rotational temperatures (Kelvin)      0.01731     0.01131     0.00899
 Rotational constants (GHZ):           0.36073     0.23573     0.18731
    1 imaginary frequencies ignored.
 Zero-point vibrational energy     910895.2 (Joules/Mol)
                                  217.70917 (Kcal/Mol)
 Warning -- explicit consideration of  41 degrees of freedom as
           vibrations may cause significant error
 Vibrational temperatures:     33.46    42.58    68.65    73.78    88.48
          (Kelvin)            106.23   111.53   127.83   136.36   151.17
                              162.66   187.74   195.97   222.37   223.84
                              249.09   254.31   270.41   282.17   293.33
                              298.69   316.20   322.30   359.49   380.44
                              386.16   407.88   422.91   424.26   448.44
                              475.24   493.82   508.10   525.36   536.70
                              550.10   625.13   648.44   676.45   722.79
                              766.57   902.00   909.10   918.78   958.68
                              998.30  1044.77  1083.39  1118.36  1140.30
                             1158.79  1170.64  1194.44  1204.71  1229.38
                             1234.34  1283.39  1335.82  1361.76  1368.05
                             1388.77  1400.29  1457.11  1468.97  1501.31
                             1503.81  1514.05  1537.49  1551.62  1588.33
                             1623.53  1664.70  1690.55  1704.67  1714.47
                             1765.33  1774.42  1776.51  1788.81  1866.29
                             1883.34  1893.76  1919.48  1958.55  2010.28
                             2060.56  2080.54  2106.65  2110.57  2118.43
                             2125.73  2139.03  2154.14  2158.31  2318.05
                             2327.03  2370.32  2371.83  2594.42  2662.45
                             4431.71  4445.35  4461.28  4568.77  4581.61
                             4605.21  4632.30  4638.25  4651.45  4671.49
                             4685.31  4694.17  4698.66  4710.19  5129.10
                             5267.44  5400.99  5476.74  5619.68  5625.03
                             5629.22  5649.85

 Zero-point correction=                           0.346942 (Hartree/Particle)
 Thermal correction to Energy=                    0.374339
 Thermal correction to Enthalpy=                  0.375283
 Thermal correction to Gibbs Free Energy=         0.289401
 Sum of electronic and zero-point Energies=          -1141.889252
 Sum of electronic and thermal Energies=             -1141.861855
 Sum of electronic and thermal Enthalpies=           -1141.860911
 Sum of electronic and thermal Free Energies=        -1141.946793

                     E (Thermal)             CV                S
                      KCal/Mol        Cal/Mol-Kelvin    Cal/Mol-Kelvin
 Total                  234.901             97.732            180.755
 Electronic               0.000              0.000              0.000
 Translational            0.889              2.981             43.092
 Rotational               0.889              2.981             34.267
 Vibrational            233.124             91.771            103.396
 Vibration     1          0.593              1.985              6.335
 Vibration     2          0.593              1.984              5.857
 Vibration     3          0.595              1.978              4.910
 Vibration     4          0.596              1.977              4.767
 Vibration     5          0.597              1.973              4.409
 Vibration     6          0.599              1.966              4.048
 Vibration     7          0.599              1.964              3.953
 Vibration     8          0.602              1.957              3.685
 Vibration     9          0.603              1.953              3.559
 Vibration    10          0.605              1.945              3.358
 Vibration    11          0.607              1.939              3.216
 Vibration    12          0.612              1.923              2.939
 Vibration    13          0.614              1.917              2.857
 Vibration    14          0.620              1.898              2.615
 Vibration    15          0.620              1.896              2.603
 Vibration    16          0.627              1.876              2.401
 Vibration    17          0.628              1.871              2.362
 Vibration    18          0.633              1.856              2.248
 Vibration    19          0.636              1.845              2.169
 Vibration    20          0.640              1.834              2.098
 Vibration    21          0.641              1.829              2.065
 Vibration    22          0.647              1.811              1.961
 Vibration    23          0.649              1.805              1.926
 Vibration    24          0.663              1.763              1.732
 Vibration    25          0.671              1.738              1.632
 Vibration    26          0.673              1.731              1.607
 Vibration    27          0.682              1.704              1.513
 Vibration    28          0.689              1.685              1.451
 Vibration    29          0.689              1.683              1.446
 Vibration    30          0.700              1.651              1.353
 Vibration    31          0.713              1.615              1.259
 Vibration    32          0.722              1.589              1.197
 Vibration    33          0.729              1.569              1.152
 Vibration    34          0.738              1.544              1.100
 Vibration    35          0.744              1.528              1.067
 Vibration    36          0.752              1.508              1.030
 Vibration    37          0.795              1.395              0.844
 Vibration    38          0.809              1.359              0.794
 Vibration    39          0.827              1.316              0.737
 Vibration    40          0.858              1.245              0.652
 Vibration    41          0.888              1.177              0.581

 Normal termination of Gaussian 09 at Wed Sep 16 20:11:10 2020.
