 Gaussian 09, Revision D.01,
 Gaussian 09:  ES64L-G09RevD.01 24-Apr-2013

 ----------------------------------------------------------------------
 # opt freq scrf=(cpcm,solvent=water) geom=connectivity def2svp m062x e
 mpiricaldispersion=gd3
 ----------------------------------------------------------------------

 -------------------
 Title Card Required
 -------------------
 Symbolic Z-matrix:
 Charge =  0 Multiplicity = 1

 SCF Done:  E(RM062X) =  -871.105052093     A.U. after   15 cycles
 SCF Done:  E(RM062X) =  -871.104755609     A.U. after   14 cycles
 SCF Done:  E(RM062X) =  -871.105143046     A.U. after    8 cycles
 SCF Done:  E(RM062X) =  -871.104889228     A.U. after   14 cycles
 SCF Done:  E(RM062X) =  -871.105206676     A.U. after   11 cycles
 SCF Done:  E(RM062X) =  -871.105192297     A.U. after   12 cycles
 SCF Done:  E(RM062X) =  -871.105249315     A.U. after   12 cycles
 SCF Done:  E(RM062X) =  -871.105270167     A.U. after   10 cycles
 SCF Done:  E(RM062X) =  -871.105285437     A.U. after   11 cycles
 SCF Done:  E(RM062X) =  -871.105291430     A.U. after   11 cycles
 SCF Done:  E(RM062X) =  -871.105433110     A.U. after   10 cycles
 SCF Done:  E(RM062X) =  -871.105433709     A.U. after    8 cycles
 SCF Done:  E(RM062X) =  -871.105434028     A.U. after    8 cycles
 SCF Done:  E(RM062X) =  -871.105434379     A.U. after    9 cycles
 SCF Done:  E(RM062X) =  -871.105434617     A.U. after    7 cycles
 SCF Done:  E(RM062X) =  -871.105434834     A.U. after    7 cycles
 SCF Done:  E(RM062X) =  -871.105434943     A.U. after    8 cycles
 SCF Done:  E(RM062X) =  -871.105435069     A.U. after    8 cycles
 SCF Done:  E(RM062X) =  -871.105435186     A.U. after    8 cycles
 Optimization completed.
    -- Stationary point found.
 Normal termination of Gaussian 09 at Wed Sep  9 12:29:20 2020.

 -------------------------------------------------------------------
 #N Geom=AllCheck Guess=TCheck SCRF=Check GenChk RM062X/def2SVP Freq
 -------------------------------------------------------------------

 Structure from the checkpoint file:  "m062x_dmad_4H2O_cycloaddition_PM6_toluene_water.chk"
 -------------------
 Title Card Required
 -------------------
 Charge =  0 Multiplicity = 1

                         Standard orientation:
 ---------------------------------------------------------------------
 Center     Atomic      Atomic             Coordinates (Angstroms)
 Number     Number       Type             X           Y           Z
 ---------------------------------------------------------------------
      1          7           0        0.349493    0.297558   -0.429082
      2          7           0       -0.364324   -0.455097    0.223288
      3          6           0        1.764331    0.036644   -0.265152
      4          6           0       -1.779961   -0.178396    0.058747
      5          8           0       -2.313614   -0.198538   -1.013321
      6          8           0        2.451994    0.833794    0.308509
      7          8           0       -2.316977   -0.034492    1.236424
      8          8           0        2.111894   -1.055194   -0.879245
      9          6           0        3.475797   -1.479088   -0.715847
     10          1           0        3.647389   -2.241026   -1.480000
     11          1           0        4.154582   -0.627647   -0.840471
     12          1           0        3.568213   -1.899734    0.293005
     13          6           0       -3.684418    0.398705    1.259266
     14          1           0       -3.714668    1.438269    0.908598
     15          1           0       -4.293936   -0.239122    0.608743
     16          1           0       -4.006195    0.327684    2.301004
     17          8           0        5.193885    1.445016   -0.410555
     18          1           0        4.323446    1.340382    0.001816
     19          1           0        4.974905    1.786382   -1.286203
     20          8           0        1.700147   -1.679380    1.935037
     21          1           0        1.800536   -0.891652    2.483777
     22          1           0        0.794023   -1.605270    1.601518
     23          8           0       -1.530679    2.503876    0.035706
     24          1           0       -0.851267    2.267813   -0.610812
     25          1           0       -1.021276    2.677073    0.837493
     26          8           0       -5.076286   -0.952711   -1.503811
     27          1           0       -4.144881   -0.684523   -1.495853
     28          1           0       -5.544460   -0.112015   -1.574106
 ---------------------------------------------------------------------

 SCF Done:  E(RM062X) =  -871.105435186     A.U. after    1 cycles

 The electronic state is 1-A.
 Alpha  occ. eigenvalues --  -19.70912 -19.70706 -19.66047 -19.65990 -19.62952
 Alpha  occ. eigenvalues --  -19.62375 -19.61490 -19.61385 -14.87221 -14.87140
 Alpha  occ. eigenvalues --  -10.74270 -10.74110 -10.61432 -10.61330  -1.28011
 Alpha  occ. eigenvalues --   -1.26569  -1.19411  -1.17057  -1.16408  -1.10815
 Alpha  occ. eigenvalues --   -1.10280  -1.09451  -1.09338  -0.91818  -0.84608
 Alpha  occ. eigenvalues --   -0.80009  -0.70025  -0.66150  -0.65378  -0.63646
 Alpha  occ. eigenvalues --   -0.61480  -0.60804  -0.59709  -0.59640  -0.59055
 Alpha  occ. eigenvalues --   -0.57634  -0.57245  -0.56057  -0.53262  -0.52418
 Alpha  occ. eigenvalues --   -0.51834  -0.48845  -0.47752  -0.46718  -0.46317
 Alpha  occ. eigenvalues --   -0.45735  -0.45568  -0.45264  -0.45101  -0.42353
 Alpha  occ. eigenvalues --   -0.40645  -0.40259  -0.40224  -0.39265  -0.38719
 Alpha  occ. eigenvalues --   -0.37622  -0.37496  -0.34120
 Alpha virt. eigenvalues --   -0.06339   0.04233   0.05648   0.09214   0.09869
 Alpha virt. eigenvalues --    0.11218   0.11719   0.14801   0.14908   0.15973
 Alpha virt. eigenvalues --    0.16328   0.18193   0.18872   0.19039   0.20407

 Mulliken charges:
               1
     1  N   -0.123391
     2  N   -0.131529
     3  C    0.337691
     4  C    0.356110
     5  O   -0.273626
     6  O   -0.276481
     7  O   -0.310339
     8  O   -0.310454
     9  C    0.114146
    10  H    0.081778
    11  H    0.031591
    12  H    0.076719
    13  C    0.107915
    14  H    0.075141
    15  H    0.037707
    16  H    0.082349
    17  O   -0.359608
    18  H    0.186967
    19  H    0.190632
    20  O   -0.339154
    21  H    0.191601
    22  H    0.188241
    23  O   -0.332682
    24  H    0.192808
    25  H    0.194128
    26  O   -0.363518
    27  H    0.184179
    28  H    0.191080
 Sum of Mulliken charges =   0.00000

 Dipole moment (field-independent basis, Debye):
    X=             -0.8458    Y=              2.5769    Z=              1.2637  Tot=              2.9921
 Quadrupole moment (field-independent basis, Debye-Ang):
   XX=           -102.0367   YY=            -87.3681   ZZ=            -77.8445
   XY=            -14.2485   XZ=            -18.7978   YZ=              0.3610

  Exact polarizability: 133.676   0.854  91.494  -5.439   3.822  95.604
 Approx polarizability: 110.054   5.139  89.362  -0.114   3.658  96.810

                      1                      2                      3
                      A                      A                      A
 Frequencies --     21.0745                30.1189                32.8922
 Red. masses --      6.3934                 6.6170                 7.0878
 Frc consts  --      0.0017                 0.0035                 0.0045
 IR Inten    --      2.8188                 2.6470                 0.3609

                      4                      5                      6
                      A                      A                      A
 Frequencies --     51.5520                62.5890                94.1133
 Red. masses --      7.0522                 5.9898                 5.1768
 Frc consts  --      0.0110                 0.0138                 0.0270
 IR Inten    --      2.9036                 2.2669                 3.9514

                      7                      8                      9
                      A                      A                      A
 Frequencies --    102.3144               113.4163               120.4450
 Red. masses --      5.5882                 6.0150                 5.4857
 Frc consts  --      0.0345                 0.0456                 0.0469
 IR Inten    --      7.4013                10.5167                 0.8402

                     10                     11                     12
                      A                      A                      A
 Frequencies --    123.2570               127.0337               137.3627
 Red. masses --      5.4292                 4.9023                 5.4223
 Frc consts  --      0.0486                 0.0466                 0.0603
 IR Inten    --     31.5470                23.3045                 0.7269

                     13                     14                     15
                      A                      A                      A
 Frequencies --    144.4236               155.8939               159.0237
 Red. masses --      4.0645                 8.4591                 5.7632
 Frc consts  --      0.0499                 0.1211                 0.0859
 IR Inten    --     10.7732                 9.7958                37.3431

                     16                     17                     18
                      A                      A                      A
 Frequencies --    173.8758               190.5438               198.3307
 Red. masses --      5.0298                 1.7118                 1.1829
 Frc consts  --      0.0896                 0.0366                 0.0274
 IR Inten    --      7.2249                81.2626                32.7061

                     19                     20                     21
                      A                      A                      A
 Frequencies --    205.7657               211.5284               252.3529
 Red. masses --      1.4711                 1.5458                 1.8349
 Frc consts  --      0.0367                 0.0408                 0.0688
 IR Inten    --      2.2591                31.8749               175.5854

                     22                     23                     24
                      A                      A                      A
 Frequencies --    269.6648               276.9639               282.5898
 Red. masses --      1.2174                 1.0891                 1.2242
 Frc consts  --      0.0522                 0.0492                 0.0576
 IR Inten    --     61.2408                92.5742               167.0578

                     25                     26                     27
                      A                      A                      A
 Frequencies --    297.5484               303.6951               308.1214
 Red. masses --      3.2945                 1.3124                 1.2930
 Frc consts  --      0.1719                 0.0713                 0.0723
 IR Inten    --      2.8526                64.7259               181.9845

                     28                     29                     30
                      A                      A                      A
 Frequencies --    316.0151               321.3655               338.9187
 Red. masses --      1.2029                 1.4193                 1.8960
 Frc consts  --      0.0708                 0.0864                 0.1283
 IR Inten    --    115.4550               133.8031                39.6066

                     31                     32                     33
                      A                      A                      A
 Frequencies --    346.5850               460.9677               494.5782
 Red. masses --      2.3827                 1.3860                 2.5093
 Frc consts  --      0.1686                 0.1735                 0.3616
 IR Inten    --     45.4688               128.2829               133.5505

                     34                     35                     36
                      A                      A                      A
 Frequencies --    516.4541               529.1129               544.5027
 Red. masses --      1.1875                 1.5802                 1.1526
 Frc consts  --      0.1866                 0.2606                 0.2013
 IR Inten    --    297.1179               216.5545               226.9738

                     37                     38                     39
                      A                      A                      A
 Frequencies --    571.3220               671.6507               718.1380
 Red. masses --      1.8104                 7.4239                 8.1816
 Frc consts  --      0.3482                 1.9732                 2.4860
 IR Inten    --     51.6163                14.7229                10.8065

                     40                     41                     42
                      A                      A                      A
 Frequencies --    821.0395               866.9216               948.2585
 Red. masses --     10.9178                 6.3344                 5.5742
 Frc consts  --      4.3363                 2.8049                 2.9532
 IR Inten    --     68.1405                 7.3310               114.3943

                     43                     44                     45
                      A                      A                      A
 Frequencies --   1010.3044              1082.6500              1098.8695
 Red. masses --      7.6185                 8.7944                 8.4366
 Frc consts  --      4.5817                 6.0734                 6.0022
 IR Inten    --     12.2434                 0.9524                45.5169

                     46                     47                     48
                      A                      A                      A
 Frequencies --   1182.1064              1191.9130              1230.0248
 Red. masses --      1.2805                 1.2746                 1.4992
 Frc consts  --      1.0542                 1.0669                 1.3364
 IR Inten    --      4.0013                 5.0901                31.2574

                     49                     50                     51
                      A                      A                      A
 Frequencies --   1235.1105              1356.6545              1379.6485
 Red. masses --      1.5016                 3.9917                 3.3347
 Frc consts  --      1.3496                 4.3286                 3.7398
 IR Inten    --     19.2395              1383.2111                76.1776

                     52                     53                     54
                      A                      A                      A
 Frequencies --   1464.9305              1467.5699              1492.9964
 Red. masses --      1.2215                 1.2212                 1.0474
 Frc consts  --      1.5445                 1.5496                 1.3755
 IR Inten    --    164.2237                32.1262                25.3838

                     55                     56                     57
                      A                      A                      A
 Frequencies --   1494.1262              1494.3046              1497.1018
 Red. masses --      1.1919                 1.0674                 1.1689
 Frc consts  --      1.5677                 1.4042                 1.5436
 IR Inten    --     76.0813                23.6765                25.9489

                     58                     59                     60
                      A                      A                      A
 Frequencies --   1619.3053              1626.1167              1636.9625
 Red. masses --      1.0816                 1.0805                 1.0779
 Frc consts  --      1.6710                 1.6834                 1.7017
 IR Inten    --    111.0475                77.6249                90.4115

                     61                     62                     63
                      A                      A                      A
 Frequencies --   1639.0648              1810.1348              1899.3216
 Red. masses --      1.0789                13.9678                11.9294
 Frc consts  --      1.7078                26.9650                25.3551
 IR Inten    --    128.3919                 0.3292               248.7213

                     64                     65                     66
                      A                      A                      A
 Frequencies --   1905.7091              3092.9567              3095.9205
 Red. masses --     11.9117                 1.0303                 1.0300
 Frc consts  --     25.4880                 5.8072                 5.8168
 IR Inten    --   1087.7711                21.2924                20.8870

                     67                     68                     69
                      A                      A                      A
 Frequencies --   3206.9031              3209.5487              3235.8327
 Red. masses --      1.1086                 1.1099                 1.1111
 Frc consts  --      6.7171                 6.7365                 6.8547
 IR Inten    --      4.0946                 4.1646                 2.1929

                     70                     71                     72
                      A                      A                      A
 Frequencies --   3243.0640              3804.6559              3813.4751
 Red. masses --      1.1104                 1.0533                 1.0512
 Frc consts  --      6.8810                 8.9834                 9.0072
 IR Inten    --      2.6690               379.2130               153.8136

                     73                     74                     75
                      A                      A                      A
 Frequencies --   3815.4885              3835.8959              3917.4429
 Red. masses --      1.0520                 1.0482                 1.0763
 Frc consts  --      9.0231                 9.0869                 9.7317
 IR Inten    --    260.7726                63.5448               147.5135

                     76                     77                     78
                      A                      A                      A
 Frequencies --   3918.4086              3919.9060              3923.2683
 Red. masses --      1.0754                 1.0743                 1.0793
 Frc consts  --      9.7284                 9.7258                 9.7883
 IR Inten    --    166.1446               138.9183               138.5937

 - Thermochemistry -
 -------------------
 Temperature   298.150 Kelvin.  Pressure   1.00000 Atm.
 Atom     1 has atomic number  7 and mass  14.00307

 Molecular mass:   218.07502 amu.
 Principal axes and moments of inertia in atomic units:
                           1         2         3
     Eigenvalues --  1774.123857327.997367611.77063
           X            0.99995  -0.00800  -0.00553
           Y            0.00802   0.99996   0.00320
           Z            0.00551  -0.00324   0.99998
 This molecule is an asymmetric top.
 Rotational symmetry number  1.
 Warning -- assumption of classical behavior for rotation
           may cause significant error
 Rotational temperatures (Kelvin)      0.04882     0.01182     0.01138
 Rotational constants (GHZ):           1.01726     0.24628     0.23710
 Zero-point vibrational energy     566790.7 (Joules/Mol)
                                  135.46624 (Kcal/Mol)
 Warning -- explicit consideration of  37 degrees of freedom as
           vibrations may cause significant error
 Vibrational temperatures:     30.32    43.33    47.32    74.17    90.05
          (Kelvin)            135.41   147.21   163.18   173.29   177.34
                              182.77   197.63   207.79   224.30   228.80
                              250.17   274.15   285.35   296.05   304.34
                              363.08   387.99   398.49   406.58   428.11
                              436.95   443.32   454.67   462.37   487.63
                              498.66   663.23   711.59   743.06   761.27
                              783.42   822.00   966.35  1033.24  1181.29
                             1247.31  1364.33  1453.60  1557.69  1581.03
                             1700.79  1714.89  1769.73  1777.05  1951.92
                             1985.00  2107.71  2111.50  2148.09  2149.71
                             2149.97  2153.99  2329.82  2339.62  2355.22
                             2358.25  2604.38  2732.70  2741.89  4450.07
                             4454.33  4614.01  4617.82  4655.64  4666.04
                             5474.04  5486.73  5489.63  5518.99  5636.32
                             5637.71  5639.86  5644.70

 Zero-point correction=                           0.215879 (Hartree/Particle)
 Thermal correction to Energy=                    0.239179
 Thermal correction to Enthalpy=                  0.240123
 Thermal correction to Gibbs Free Energy=         0.162196
 Sum of electronic and zero-point Energies=           -870.889556
 Sum of electronic and thermal Energies=              -870.866256
 Sum of electronic and thermal Enthalpies=            -870.865312
 Sum of electronic and thermal Free Energies=         -870.943239

                     E (Thermal)             CV                S
                      KCal/Mol        Cal/Mol-Kelvin    Cal/Mol-Kelvin
 Total                  150.087             75.916            164.012
 Electronic               0.000              0.000              0.000
 Translational            0.889              2.981             42.042
 Rotational               0.889              2.981             32.959
 Vibrational            148.310             69.954             89.011
 Vibration     1          0.593              1.985              6.530
 Vibration     2          0.594              1.984              5.822
 Vibration     3          0.594              1.983              5.647
 Vibration     4          0.596              1.977              4.757
 Vibration     5          0.597              1.972              4.374
 Vibration     6          0.603              1.953              3.573
 Vibration     7          0.604              1.947              3.410
 Vibration     8          0.607              1.938              3.210
 Vibration     9          0.609              1.932              3.093
 Vibration    10          0.610              1.930              3.049
 Vibration    11          0.611              1.926              2.990
 Vibration    12          0.614              1.916              2.840
 Vibration    13          0.616              1.909              2.744
 Vibration    14          0.620              1.896              2.599
 Vibration    15          0.621              1.892              2.561
 Vibration    16          0.627              1.875              2.393
 Vibration    17          0.634              1.853              2.223
 Vibration    18          0.637              1.842              2.149
 Vibration    19          0.640              1.832              2.081
 Vibration    20          0.643              1.823              2.030
 Vibration    21          0.664              1.759              1.714
 Vibration    22          0.674              1.729              1.598
 Vibration    23          0.678              1.716              1.552
 Vibration    24          0.682              1.706              1.518
 Vibration    25          0.691              1.678              1.431
 Vibration    26          0.695              1.667              1.396
 Vibration    27          0.698              1.658              1.372
 Vibration    28          0.703              1.643              1.331
 Vibration    29          0.707              1.633              1.303
 Vibration    30          0.719              1.598              1.217
 Vibration    31          0.725              1.582              1.182
 Vibration    32          0.819              1.337              0.763
 Vibration    33          0.850              1.262              0.672
 Vibration    34          0.871              1.214              0.618
 Vibration    35          0.884              1.186              0.589
 Vibration    36          0.900              1.152              0.556
 Vibration    37          0.927              1.093              0.502

 Normal termination of Gaussian 09 at Wed Sep  9 12:37:37 2020.
