 Gaussian 09, Revision D.01,
 Gaussian 09:  ES64L-G09RevD.01 24-Apr-2013

 -------------------------------------------------
 #n wB97XD/Def2TZVP scrf(smd,solvent=toluene) freq
 -------------------------------------------------

 ---------------------------------------
 starting material claisen toluene - opt
 ---------------------------------------
 Symbolic Z-matrix:
 Charge =  0 Multiplicity = 1

                         Standard orientation:
 ---------------------------------------------------------------------
 Center     Atomic      Atomic             Coordinates (Angstroms)
 Number     Number       Type             X           Y           Z
 ---------------------------------------------------------------------
      1          6           0       -2.704773    2.405517    0.790719
      2          6           0       -2.963231    1.192877    0.218129
      3          6           0       -1.912481    0.312098   -0.126791
      4          6           0       -0.574101    0.717240    0.120919
      5          6           0       -0.342102    1.973710    0.727389
      6          6           0       -1.380863    2.798869    1.053569
      7          1           0       -3.523713    3.063817    1.051479
      8          1           0       -3.984001    0.891496    0.029319
      9          1           0        0.674248    2.269701    0.944579
     10          1           0       -1.185384    3.754419    1.523109
     11          6           0        0.508070   -0.160059   -0.207361
     12          6           0       -2.126799   -0.976932   -0.684411
     13          6           0        0.244521   -1.404460   -0.710851
     14          1           0        1.035172   -2.106159   -0.917051
     15          6           0       -1.083049   -1.806061   -0.953891
     16          1           0       -1.265748   -2.790271   -1.363551
     17          8           0        1.729589    0.361642    0.045519
     18         17           0       -3.745339   -1.524934   -1.019061
     19          6           0        2.987290   -0.316627   -0.185821
     20          6           0        3.110811   -1.580237    0.633099
     21          1           0        3.855772   -2.279236    0.263729
     22          6           0        3.208970   -0.564197   -1.676461
     23          1           0        4.233421   -0.905206   -1.832101
     24          1           0        2.542091   -1.315707   -2.093061
     25          1           0        3.071759    0.363453   -2.233381
     26          6           0        4.017249    0.691534    0.320749
     27          1           0        3.815059    0.938974    1.362889
     28          1           0        5.018529    0.264625    0.255869
     29          1           0        3.993408    1.604334   -0.277961
     30          6           0        2.449382   -1.847168    1.746029
     31          1           0        2.631242   -2.763807    2.293479
     32          1           0        1.699231   -1.176938    2.150929
     33          8           0       -0.946119   -1.280741    2.798719
     34          1           0       -0.835579   -1.676891    1.930079
     35          1           0       -1.251060   -0.389051    2.614249
     36          8           0        1.713647    2.737912   -1.813771
     37          1           0        0.783597    2.968701   -1.863161
     38          1           0        1.752408    2.040492   -1.149181
 ---------------------------------------------------------------------

 SCF Done:  E(RwB97XD) =  -1268.97761865     A.U. after   15 cycles

 The electronic state is 1-A.
 Alpha  occ. eigenvalues -- -101.70067 -19.29652 -19.24254 -19.23723 -10.36786
 Alpha  occ. eigenvalues --  -10.36704 -10.35160 -10.31937 -10.31465 -10.30622
 Alpha  occ. eigenvalues --  -10.29907 -10.29870 -10.29803 -10.29746 -10.29706
 Alpha  occ. eigenvalues --  -10.29265 -10.27963 -10.27883 -10.27812  -9.58622
 Alpha  occ. eigenvalues --   -7.33262  -7.32403  -7.32383  -1.18744  -1.10593
 Alpha  occ. eigenvalues --   -1.10122  -1.01073  -0.96689  -0.94234  -0.92062
 Alpha  occ. eigenvalues --   -0.87117  -0.86125  -0.85424  -0.82201  -0.79613
 Alpha  occ. eigenvalues --   -0.74508  -0.73430  -0.71795  -0.69879  -0.65888
 Alpha  occ. eigenvalues --   -0.62742  -0.61544  -0.61182  -0.61090  -0.59631
 Alpha  occ. eigenvalues --   -0.58075  -0.57108  -0.56239  -0.53584  -0.53143
 Alpha  occ. eigenvalues --   -0.52974  -0.52547  -0.51718  -0.50944  -0.49376
 Alpha  occ. eigenvalues --   -0.48837  -0.48281  -0.47756  -0.47035  -0.46865
 Alpha  occ. eigenvalues --   -0.46430  -0.45669  -0.45243  -0.43998  -0.43448
 Alpha  occ. eigenvalues --   -0.43086  -0.40965  -0.40007  -0.39581  -0.39478
 Alpha  occ. eigenvalues --   -0.39222  -0.35736  -0.35271  -0.33775  -0.28873
 Alpha virt. eigenvalues --    0.00681   0.03081   0.06460   0.08506   0.09759
 Alpha virt. eigenvalues --    0.10404   0.11585   0.13025   0.13538   0.13917
 Alpha virt. eigenvalues --    0.14813   0.15130   0.16318   0.16766   0.17276

 Mulliken charges:
               1
     1  C   -0.136186
     2  C   -0.176775
     3  C    0.013046
     4  C   -0.081136
     5  C   -0.328726
     6  C   -0.086196
     7  H    0.145293
     8  H    0.142518
     9  H    0.178414
    10  H    0.146101
    11  C    0.422027
    12  C    0.114913
    13  C   -0.257622
    14  H    0.166104
    15  C   -0.275736
    16  H    0.147514
    17  O   -0.344206
    18  Cl  -0.097642
    19  C    0.204456
    20  C   -0.211868
    21  H    0.152386
    22  C   -0.394193
    23  H    0.143670
    24  H    0.138911
    25  H    0.153797
    26  C   -0.363711
    27  H    0.143628
    28  H    0.137763
    29  H    0.149146
    30  C   -0.324718
    31  H    0.152199
    32  H    0.171534
    33  O   -0.639507
    34  H    0.338172
    35  H    0.347708
    36  O   -0.637023
    37  H    0.340140
    38  H    0.305805
 Sum of Mulliken charges =   0.00000

 Dipole moment (field-independent basis, Debye):
    X=              1.5742    Y=             -0.1738    Z=             -0.6294  Tot=              1.7042
 Quadrupole moment (field-independent basis, Debye-Ang):
   XX=           -114.4285   YY=           -116.9002   ZZ=           -133.9450
   XY=            -16.5888   XZ=              1.2509   YZ=             13.2911

  Exact polarizability: 287.273 -10.060 252.262  -4.645  30.548 181.018
 Approx polarizability: 261.466  -5.384 249.134  -4.189  31.254 187.913

                      1                      2                      3
                      A                      A                      A
 Frequencies --     33.8334                41.5933                43.5684
 Red. masses --      6.3787                 6.9535                 5.3394
 Frc consts  --      0.0043                 0.0071                 0.0060
 IR Inten    --      1.0076                 3.5503                 0.7071

                      4                      5                      6
                      A                      A                      A
 Frequencies --     63.5714                67.2276                73.9076
 Red. masses --      5.3110                 5.3999                 4.9526
 Frc consts  --      0.0126                 0.0144                 0.0159
 IR Inten    --      2.7490                 2.3330                 6.4891

                      7                      8                      9
                      A                      A                      A
 Frequencies --    106.3948               120.6211               123.8917
 Red. masses --      3.4278                 3.6541                 4.0727
 Frc consts  --      0.0229                 0.0313                 0.0368
 IR Inten    --      0.2220                 3.6454                 0.5426

                     10                     11                     12
                      A                      A                      A
 Frequencies --    133.5603               144.1033               147.4157
 Red. masses --      2.7707                 2.0873                 3.8946
 Frc consts  --      0.0291                 0.0255                 0.0499
 IR Inten    --      7.1740                16.2677                 1.3968

                     13                     14                     15
                      A                      A                      A
 Frequencies --    157.8039               180.6661               187.7514
 Red. masses --      1.2525                 1.2865                 1.4355
 Frc consts  --      0.0184                 0.0247                 0.0298
 IR Inten    --     65.5898                37.6628                 4.3012

                     16                     17                     18
                      A                      A                      A
 Frequencies --    200.6450               212.7367               233.9514
 Red. masses --      3.2838                 3.1426                 6.4531
 Frc consts  --      0.0779                 0.0838                 0.2081
 IR Inten    --      5.8848                 4.4192                 0.1706

                     19                     20                     21
                      A                      A                      A
 Frequencies --    248.3224               275.2634               283.9987
 Red. masses --      1.1316                 2.1169                 1.3613
 Frc consts  --      0.0411                 0.0945                 0.0647
 IR Inten    --    101.8654                 9.1670                 1.0121

                     22                     23                     24
                      A                      A                      A
 Frequencies --    324.0516               328.3337               331.3364
 Red. masses --      2.2967                 1.1006                 1.9744
 Frc consts  --      0.1421                 0.0699                 0.1277
 IR Inten    --      5.9587                94.3741                23.8807

                     25                     26                     27
                      A                      A                      A
 Frequencies --    345.3639               374.0051               390.8411
 Red. masses --      1.2625                 4.2205                 2.8602
 Frc consts  --      0.0887                 0.3478                 0.2574
 IR Inten    --     93.7731                 5.7305                 4.9331

                     28                     29                     30
                      A                      A                      A
 Frequencies --    425.4471               433.9525               450.8738
 Red. masses --      4.4859                 2.7102                 2.7824
 Frc consts  --      0.4784                 0.3007                 0.3333
 IR Inten    --      3.7940                12.4067                 7.8861

                     31                     32                     33
                      A                      A                      A
 Frequencies --    485.4248               492.5896               503.5607
 Red. masses --      2.3385                 1.4277                 4.7029
 Frc consts  --      0.3247                 0.2041                 0.7026
 IR Inten    --     20.2343                67.6105                 2.6310

                     34                     35                     36
                      A                      A                      A
 Frequencies --    539.4237               564.2335               605.0300
 Red. masses --      5.9206                 3.8944                 4.2681
 Frc consts  --      1.0150                 0.7305                 0.9205
 IR Inten    --      4.6715                 2.8564                 2.0085

                     37                     38                     39
                      A                      A                      A
 Frequencies --    621.8296               668.1220               675.2937
 Red. masses --      3.2817                 3.5653                 4.6185
 Frc consts  --      0.7476                 0.9377                 1.2409
 IR Inten    --      5.0791                 7.4976                16.4968

                     40                     41                     42
                      A                      A                      A
 Frequencies --    704.2428               753.4251               777.6121
 Red. masses --      2.0988                 5.0538                 3.8638
 Frc consts  --      0.6133                 1.6902                 1.3765
 IR Inten    --     22.0382                13.1479                22.8568

                     43                     44                     45
                      A                      A                      A
 Frequencies --    805.2399               814.1002               820.5445
 Red. masses --      1.3857                 4.9364                 3.5945
 Frc consts  --      0.5294                 1.9276                 1.4259
 IR Inten    --     79.7434                 3.0702                 1.3352

                     46                     47                     48
                      A                      A                      A
 Frequencies --    865.5815               908.1475               912.0117
 Red. masses --      1.3658                 2.6894                 1.5933
 Frc consts  --      0.6029                 1.3068                 0.7808
 IR Inten    --     50.0053                58.6562                 0.5011

                     49                     50                     51
                      A                      A                      A
 Frequencies --    955.5210               965.9200               972.7035
 Red. masses --      1.4928                 1.9626                 1.5264
 Frc consts  --      0.8030                 1.0788                 0.8509
 IR Inten    --      4.0326                16.7096                 6.7431

                     52                     53                     54
                      A                      A                      A
 Frequencies --    986.2749              1003.9491              1011.7832
 Red. masses --      3.7976                 1.3816                 1.3377
 Frc consts  --      2.1765                 0.8205                 0.8068
 IR Inten    --     16.8532                33.0335                 1.5713

                     55                     56                     57
                      A                      A                      A
 Frequencies --   1033.6645              1040.2338              1051.5894
 Red. masses --      1.3011                 1.2555                 1.1698
 Frc consts  --      0.8191                 0.8004                 0.7622
 IR Inten    --      0.3213                 5.5559                18.6953

                     58                     59                     60
                      A                      A                      A
 Frequencies --   1067.1326              1070.0237              1113.6523
 Red. masses --      1.3515                 2.7557                 2.6528
 Frc consts  --      0.9068                 1.8590                 1.9384
 IR Inten    --     30.0180                23.2128                78.5218

                     61                     62                     63
                      A                      A                      A
 Frequencies --   1177.6366              1200.3101              1205.6477
 Red. masses --      2.4600                 1.4932                 2.0409
 Frc consts  --      2.0101                 1.2676                 1.7479
 IR Inten    --      0.2650                89.3804               147.3666

                     64                     65                     66
                      A                      A                      A
 Frequencies --   1217.7943              1226.7209              1239.4951
 Red. masses --      1.6299                 3.1841                 1.5928
 Frc consts  --      1.4241                 2.8231                 1.4417
 IR Inten    --     13.4370                22.1810                15.9956

                     67                     68                     69
                      A                      A                      A
 Frequencies --   1267.2627              1294.4348              1315.6308
 Red. masses --      2.6098                 2.4335                 1.7811
 Frc consts  --      2.4694                 2.4024                 1.8164
 IR Inten    --     99.9854               124.4653                27.7805

                     70                     71                     72
                      A                      A                      A
 Frequencies --   1335.7048              1375.5482              1418.3184
 Red. masses --      1.3040                 3.8688                 1.2710
 Frc consts  --      1.3707                 4.3130                 1.5064
 IR Inten    --      6.0869               105.7693                14.9885

                     73                     74                     75
                      A                      A                      A
 Frequencies --   1420.7066              1429.5179              1440.2088
 Red. masses --      7.7991                 1.9107                 1.2269
 Frc consts  --      9.2748                 2.3006                 1.4994
 IR Inten    --     62.2763                89.9824                34.1887

                     76                     77                     78
                      A                      A                      A
 Frequencies --   1457.6583              1478.4353              1482.6194
 Red. masses --      1.1849                 1.0466                 1.1135
 Frc consts  --      1.4833                 1.3478                 1.4422
 IR Inten    --     10.1547                 3.3634                17.4992

                     79                     80                     81
                      A                      A                      A
 Frequencies --   1485.3445              1498.1324              1507.2045
 Red. masses --      2.0040                 1.1054                 1.2301
 Frc consts  --      2.6049                 1.4617                 1.6464
 IR Inten    --     14.6858                 7.2546                12.9075

                     82                     83                     84
                      A                      A                      A
 Frequencies --   1513.6395              1571.0814              1647.2164
 Red. masses --      1.7848                 3.4070                 1.0981
 Frc consts  --      2.4092                 4.9547                 1.7555
 IR Inten    --     55.5281                23.3736               169.4173

                     85                     86                     87
                      A                      A                      A
 Frequencies --   1647.8829              1656.9542              1668.4675
 Red. masses --      4.7812                 1.1559                 5.3379
 Frc consts  --      7.6496                 1.8698                 8.7549
 IR Inten    --      6.9567               148.8507               102.0109

                     88                     89                     90
                      A                      A                      A
 Frequencies --   1701.8774              1735.5659              3060.4589
 Red. masses --      6.2110                 4.9551                 1.0360
 Frc consts  --     10.5990                 8.7940                 5.7174
 IR Inten    --      9.7808                 3.7961                14.2385

                     91                     92                     93
                      A                      A                      A
 Frequencies --   3079.7901              3141.3079              3151.9559
 Red. masses --      1.0379                 1.1029                 1.1028
 Frc consts  --      5.8003                 6.4123                 6.4550
 IR Inten    --     11.9995                15.0224                 8.8532

                     94                     95                     96
                      A                      A                      A
 Frequencies --   3154.8867              3162.7323              3171.5272
 Red. masses --      1.1016                 1.0632                 1.1015
 Frc consts  --      6.4603                 6.2658                 6.5281
 IR Inten    --     22.2689                 6.5402                17.9080

                     97                     98                     99
                      A                      A                      A
 Frequencies --   3174.2883              3209.0599              3223.2451
 Red. masses --      1.0907                 1.0879                 1.0922
 Frc consts  --      6.4749                 6.6011                 6.6853
 IR Inten    --     10.2504                 4.2070                 8.9430

                    100                    101                    102
                      A                      A                      A
 Frequencies --   3225.5040              3244.6664              3247.1872
 Red. masses --      1.0922                 1.0926                 1.0945
 Frc consts  --      6.6951                 6.7774                 6.7998
 IR Inten    --      2.1739                 1.8757                 3.8973

                    103                    104                    105
                      A                      A                      A
 Frequencies --   3254.9571              3282.6442              3798.1922
 Red. masses --      1.1164                 1.0911                 1.0503
 Frc consts  --      6.9687                 6.9272                 8.9273
 IR Inten    --      6.1412                 5.9821               163.3101

                    106                    107                    108
                      A                      A                      A
 Frequencies --   3839.3640              3915.6599              3929.6530
 Red. masses --      1.0452                 1.0767                 1.0814
 Frc consts  --      9.0773                 9.7261                 9.8385
 IR Inten    --     26.0765                91.3220                33.6651

 - Thermochemistry -
 -------------------
 Temperature   298.150 Kelvin.  Pressure   1.00000 Atm.
 Atom     1 has atomic number  6 and mass  12.00000

 Molecular mass:   282.10227 amu.
 Principal axes and moments of inertia in atomic units:
                           1         2         3
     Eigenvalues --  3883.969897468.907298572.27763
           X            0.99955  -0.02586  -0.01491
           Y            0.02580   0.99966  -0.00439
           Z            0.01502   0.00400   0.99988
 This molecule is an asymmetric top.
 Rotational symmetry number  1.
 Warning -- assumption of classical behavior for rotation
           may cause significant error
 Rotational temperatures (Kelvin)      0.02230     0.01160     0.01010
 Rotational constants (GHZ):           0.46466     0.24163     0.21053
 Zero-point vibrational energy     814405.6 (Joules/Mol)
                                  194.64762 (Kcal/Mol)
 Warning -- explicit consideration of  36 degrees of freedom as
           vibrations may cause significant error
 Vibrational temperatures:     48.68    59.84    62.69    91.47    96.73
          (Kelvin)            106.34   153.08   173.55   178.25   192.16
                              207.33   212.10   227.04   259.94   270.13
                              288.68   306.08   336.60   357.28   396.04
                              408.61   466.24   472.40   476.72   496.90
                              538.11   562.33   612.12   624.36   648.71
                              698.42   708.73   724.51   776.11   811.81
                              870.50   894.67   961.28   971.60  1013.25
                             1084.01  1118.81  1158.56  1171.31  1180.58
                             1245.38  1306.62  1312.18  1374.78  1389.74
                             1399.50  1419.03  1444.46  1455.73  1487.21
                             1496.66  1513.00  1535.36  1539.52  1602.30
                             1694.35  1726.98  1734.66  1752.13  1764.98
                             1783.35  1823.31  1862.40  1892.90  1921.78
                             1979.10  2040.64  2044.08  2056.75  2072.14
                             2097.24  2127.14  2133.16  2137.08  2155.48
                             2168.53  2177.79  2260.43  2369.97  2370.93
                             2383.98  2400.55  2448.62  2497.09  4403.31
                             4431.13  4519.64  4534.96  4539.17  4550.46
                             4563.11  4567.09  4617.12  4637.52  4640.78
                             4668.35  4671.97  4683.15  4722.99  5464.74
                             5523.98  5633.75  5653.89

 Zero-point correction=                           0.310191 (Hartree/Particle)
 Thermal correction to Energy=                    0.332804
 Thermal correction to Enthalpy=                  0.333748
 Thermal correction to Gibbs Free Energy=         0.258418
 Sum of electronic and zero-point Energies=          -1268.667428
 Sum of electronic and thermal Energies=             -1268.644815
 Sum of electronic and thermal Enthalpies=           -1268.643871
 Sum of electronic and thermal Free Energies=        -1268.719201

                     E (Thermal)             CV                S
                      KCal/Mol        Cal/Mol-Kelvin    Cal/Mol-Kelvin
 Total                  208.838             82.114            158.546
 Electronic               0.000              0.000              0.000
 Translational            0.889              2.981             42.809
 Rotational               0.889              2.981             33.874
 Vibrational            207.060             76.152             81.862
 Vibration     1          0.594              1.983              5.591
 Vibration     2          0.594              1.981              5.182
 Vibration     3          0.595              1.980              5.090
 Vibration     4          0.597              1.972              4.343
 Vibration     5          0.598              1.970              4.233
 Vibration     6          0.599              1.966              4.046
 Vibration     7          0.605              1.944              3.334
 Vibration     8          0.609              1.932              3.090
 Vibration     9          0.610              1.929              3.039
 Vibration    10          0.613              1.920              2.894
 Vibration    11          0.616              1.909              2.749
 Vibration    12          0.617              1.905              2.705
 Vibration    13          0.621              1.894              2.576
 Vibration    14          0.630              1.866              2.322
 Vibration    15          0.632              1.857              2.250
 Vibration    16          0.638              1.839              2.127
 Vibration    17          0.644              1.822              2.020
 Vibration    18          0.654              1.789              1.848
 Vibration    19          0.662              1.766              1.742
 Vibration    20          0.677              1.719              1.563
 Vibration    21          0.682              1.703              1.509
 Vibration    22          0.709              1.627              1.290
 Vibration    23          0.712              1.619              1.268
 Vibration    24          0.714              1.613              1.254
 Vibration    25          0.724              1.585              1.187
 Vibration    26          0.745              1.525              1.063
 Vibration    27          0.759              1.490              0.997
 Vibration    28          0.787              1.415              0.874
 Vibration    29          0.795              1.396              0.846
 Vibration    30          0.810              1.359              0.793
 Vibration    31          0.841              1.282              0.696
 Vibration    32          0.848              1.266              0.677
 Vibration    33          0.859              1.242              0.649
 Vibration    34          0.894              1.163              0.567
 Vibration    35          0.920              1.109              0.515
 Vibration    36          0.964              1.021              0.441

 Normal termination of Gaussian 09 at Fri Feb  4 17:21:05 2022.
