 Gaussian 09, Revision D.01,
 Gaussian 09:  ES64L-G09RevD.01 24-Apr-2013

 ------------------------------------------------
 #n wB97XD/Def2TZVP scrf(smd,solvent=toluene) opt
 ------------------------------------------------

 ---------------------------------------
 starting material claisen toluene - opt
 ---------------------------------------
 Symbolic Z-matrix:
 Charge =  0 Multiplicity = 1

 SCF Done:  E(RwB97XD) =  -1268.97296733     A.U. after   15 cycles
 SCF Done:  E(RwB97XD) =  -1268.96828070     A.U. after   13 cycles
 SCF Done:  E(RwB97XD) =  -1268.97426042     A.U. after   11 cycles
 SCF Done:  E(RwB97XD) =  -1268.97602333     A.U. after   11 cycles
 SCF Done:  E(RwB97XD) =  -1268.97513446     A.U. after   12 cycles
 SCF Done:  E(RwB97XD) =  -1268.97628565     A.U. after   10 cycles
 SCF Done:  E(RwB97XD) =  -1268.97680725     A.U. after   12 cycles
 SCF Done:  E(RwB97XD) =  -1268.97702008     A.U. after   11 cycles
 SCF Done:  E(RwB97XD) =  -1268.97709533     A.U. after   11 cycles
 SCF Done:  E(RwB97XD) =  -1268.97713100     A.U. after   10 cycles
 SCF Done:  E(RwB97XD) =  -1268.97759964     A.U. after   10 cycles
 SCF Done:  E(RwB97XD) =  -1268.97759279     A.U. after    9 cycles
 SCF Done:  E(RwB97XD) =  -1268.97761137     A.U. after    9 cycles
 SCF Done:  E(RwB97XD) =  -1268.97761530     A.U. after    9 cycles
 SCF Done:  E(RwB97XD) =  -1268.97761901     A.U. after    9 cycles
 SCF Done:  E(RwB97XD) =  -1268.97761767     A.U. after    8 cycles
 SCF Done:  E(RwB97XD) =  -1268.97761684     A.U. after    8 cycles
 SCF Done:  E(RwB97XD) =  -1268.97761738     A.U. after    8 cycles
 SCF Done:  E(RwB97XD) =  -1268.97761833     A.U. after    8 cycles
 SCF Done:  E(RwB97XD) =  -1268.97761865     A.U. after    8 cycles
 Optimization completed.
    -- Stationary point found.

                         Standard orientation:
 ---------------------------------------------------------------------
 Center     Atomic      Atomic             Coordinates (Angstroms)
 Number     Number       Type             X           Y           Z
 ---------------------------------------------------------------------
      1          6           0       -2.704766    2.405517    0.790721
      2          6           0       -2.963234    1.192881    0.218130
      3          6           0       -1.912483    0.312099   -0.126795
      4          6           0       -0.574095    0.717243    0.120918
      5          6           0       -0.342096    1.973713    0.727391
      6          6           0       -1.380862    2.798872    1.053566
      7          1           0       -3.523714    3.063824    1.051483
      8          1           0       -3.984004    0.891497    0.029319
      9          1           0        0.674252    2.269701    0.944581
     10          1           0       -1.185385    3.754422    1.523111
     11          6           0        0.508071   -0.160060   -0.207365
     12          6           0       -2.126799   -0.976927   -0.684415
     13          6           0        0.244521   -1.404463   -0.710848
     14          1           0        1.035174   -2.106160   -0.917047
     15          6           0       -1.083053   -1.806058   -0.953888
     16          1           0       -1.265751   -2.790271   -1.363546
     17          8           0        1.729590    0.361644    0.045518
     18         17           0       -3.745341   -1.524935   -1.019064
     19          6           0        2.987287   -0.316632   -0.185821
     20          6           0        3.110805   -1.580237    0.633104
     21          1           0        3.855774   -2.279236    0.263732
     22          6           0        3.208968   -0.564201   -1.676462
     23          1           0        4.233420   -0.905207   -1.832099
     24          1           0        2.542091   -1.315712   -2.093061
     25          1           0        3.071764    0.363448   -2.233375
     26          6           0        4.017249    0.691532    0.320748
     27          1           0        3.815060    0.938966    1.362894
     28          1           0        5.018526    0.264624    0.255869
     29          1           0        3.993414    1.604325   -0.277959
     30          6           0        2.449381   -1.847171    1.746027
     31          1           0        2.631236   -2.763811    2.293482
     32          1           0        1.699233   -1.176945    2.150926
     33          8           0       -0.946118   -1.280741    2.798722
     34          1           0       -0.835578   -1.676891    1.930083
     35          1           0       -1.251056   -0.389051    2.614246
     36          8           0        1.713650    2.737914   -1.813772
     37          1           0        0.783605    2.968700   -1.863164
     38          1           0        1.752406    2.040492   -1.149181
 ---------------------------------------------------------------------

 The electronic state is 1-A.
 Alpha  occ. eigenvalues -- -101.70067 -19.29652 -19.24254 -19.23723 -10.36786
 Alpha  occ. eigenvalues --  -10.36704 -10.35160 -10.31937 -10.31466 -10.30622
 Alpha  occ. eigenvalues --  -10.29907 -10.29870 -10.29803 -10.29746 -10.29706
 Alpha  occ. eigenvalues --  -10.29265 -10.27963 -10.27883 -10.27812  -9.58622
 Alpha  occ. eigenvalues --   -7.33262  -7.32403  -7.32382  -1.18744  -1.10593
 Alpha  occ. eigenvalues --   -1.10122  -1.01073  -0.96689  -0.94234  -0.92062
 Alpha  occ. eigenvalues --   -0.87117  -0.86125  -0.85424  -0.82201  -0.79613
 Alpha  occ. eigenvalues --   -0.74508  -0.73430  -0.71795  -0.69879  -0.65888
 Alpha  occ. eigenvalues --   -0.62742  -0.61544  -0.61182  -0.61090  -0.59631
 Alpha  occ. eigenvalues --   -0.58075  -0.57108  -0.56239  -0.53584  -0.53143
 Alpha  occ. eigenvalues --   -0.52974  -0.52548  -0.51718  -0.50944  -0.49376
 Alpha  occ. eigenvalues --   -0.48837  -0.48281  -0.47756  -0.47035  -0.46865
 Alpha  occ. eigenvalues --   -0.46430  -0.45669  -0.45243  -0.43998  -0.43448
 Alpha  occ. eigenvalues --   -0.43086  -0.40965  -0.40007  -0.39581  -0.39478
 Alpha  occ. eigenvalues --   -0.39222  -0.35736  -0.35271  -0.33775  -0.28873
 Alpha virt. eigenvalues --    0.00681   0.03081   0.06460   0.08506   0.09759
 Alpha virt. eigenvalues --    0.10403   0.11585   0.13025   0.13538   0.13917
 Alpha virt. eigenvalues --    0.14813   0.15130   0.16318   0.16766   0.17276

 Mulliken charges:
               1
     1  C   -0.136184
     2  C   -0.176778
     3  C    0.013049
     4  C   -0.081148
     5  C   -0.328724
     6  C   -0.086194
     7  H    0.145292
     8  H    0.142518
     9  H    0.178414
    10  H    0.146102
    11  C    0.422038
    12  C    0.114918
    13  C   -0.257631
    14  H    0.166104
    15  C   -0.275735
    16  H    0.147515
    17  O   -0.344205
    18  Cl  -0.097644
    19  C    0.204456
    20  C   -0.211867
    21  H    0.152384
    22  C   -0.394192
    23  H    0.143669
    24  H    0.138911
    25  H    0.153798
    26  C   -0.363711
    27  H    0.143628
    28  H    0.137763
    29  H    0.149147
    30  C   -0.324717
    31  H    0.152199
    32  H    0.171533
    33  O   -0.639507
    34  H    0.338172
    35  H    0.347708
    36  O   -0.637022
    37  H    0.340138
    38  H    0.305806
 Sum of Mulliken charges =   0.00000

 Dipole moment (field-independent basis, Debye):
    X=              1.5742    Y=             -0.1738    Z=             -0.6294  Tot=              1.7042
 Quadrupole moment (field-independent basis, Debye-Ang):
   XX=           -114.4286   YY=           -116.9002   ZZ=           -133.9451
   XY=            -16.5888   XZ=              1.2509   YZ=             13.2911

 Normal termination of Gaussian 09 at Thu Feb  3 06:14:53 2022.
