 Gaussian 09, Revision D.01,
 Gaussian 09:  ES64L-G09RevD.01 24-Apr-2013

 ----------------------------------------------------------------------
 #n wB97XD/Def2TZVP scrf(smd,solvent=toluene) opt=(calcfc,ts,noeigentes
 t)
 ----------------------------------------------------------------------

 ------------------------
 ts_claisen toluene - opt
 ------------------------
 Symbolic Z-matrix:
 Charge =  0 Multiplicity = 1

 SCF Done:  E(RwB97XD) =  -1268.93857140     A.U. after   16 cycles

  Exact polarizability:   0.000   0.000   0.000   0.000   0.000   0.000
 Approx polarizability: 311.370   2.383 273.697  10.812 -11.474 196.249

 SCF Done:  E(RwB97XD) =  -1268.94243918     A.U. after   13 cycles
 SCF Done:  E(RwB97XD) =  -1268.94327388     A.U. after   12 cycles
 SCF Done:  E(RwB97XD) =  -1268.94378623     A.U. after   12 cycles
 SCF Done:  E(RwB97XD) =  -1268.94412061     A.U. after   12 cycles
 SCF Done:  E(RwB97XD) =  -1268.94435607     A.U. after   11 cycles
 SCF Done:  E(RwB97XD) =  -1268.94448068     A.U. after   12 cycles
 SCF Done:  E(RwB97XD) =  -1268.94458055     A.U. after   12 cycles
 SCF Done:  E(RwB97XD) =  -1268.94485180     A.U. after   12 cycles
 SCF Done:  E(RwB97XD) =  -1268.94485966     A.U. after   12 cycles
 SCF Done:  E(RwB97XD) =  -1268.94522582     A.U. after   11 cycles
 SCF Done:  E(RwB97XD) =  -1268.94529017     A.U. after   12 cycles
 SCF Done:  E(RwB97XD) =  -1268.94530488     A.U. after   10 cycles
 SCF Done:  E(RwB97XD) =  -1268.94531228     A.U. after    9 cycles
 SCF Done:  E(RwB97XD) =  -1268.94520933     A.U. after   12 cycles
 SCF Done:  E(RwB97XD) =  -1268.94529104     A.U. after   12 cycles
 SCF Done:  E(RwB97XD) =  -1268.94530828     A.U. after   12 cycles
 SCF Done:  E(RwB97XD) =  -1268.94531239     A.U. after   10 cycles
 SCF Done:  E(RwB97XD) =  -1268.94531049     A.U. after    9 cycles
 SCF Done:  E(RwB97XD) =  -1268.94531182     A.U. after    8 cycles
 Optimization completed.
    -- Stationary point found.

                         Standard orientation:
 ---------------------------------------------------------------------
 Center     Atomic      Atomic             Coordinates (Angstroms)
 Number     Number       Type             X           Y           Z
 ---------------------------------------------------------------------
      1          6           0        2.692114    2.728301   -0.301255
      2          6           0        3.068052    1.419652   -0.146452
      3          6           0        2.112211    0.421366    0.127835
      4          6           0        0.751087    0.793730    0.232211
      5          6           0        0.398142    2.145019    0.080913
      6          6           0        1.345820    3.098529   -0.182312
      7          1           0        3.442309    3.480866   -0.509366
      8          1           0        4.110476    1.145548   -0.230982
      9          1           0       -0.643841    2.416968    0.179530
     10          1           0        1.057872    4.135996   -0.295899
     11          6           0       -0.270161   -0.201491    0.528943
     12          6           0        2.453598   -0.956672    0.327205
     13          6           0        0.143363   -1.535976    0.666487
     14          1           0       -0.575939   -2.264867    1.012043
     15          6           0        1.513677   -1.888767    0.610796
     16          1           0        1.802796   -2.917739    0.779736
     17          8           0       -1.505383    0.120717    0.586134
     18         17           0        4.122918   -1.450382    0.228526
     19          6           0       -2.482288   -0.360382   -1.430397
     20          6           0       -1.995842   -1.667203   -1.378606
     21          1           0       -2.657395   -2.419906   -0.964864
     22          6           0       -3.893263   -0.092027   -1.048853
     23          1           0       -3.967227    0.832286   -0.473792
     24          1           0       -4.481001    0.051390   -1.962464
     25          1           0       -4.329047   -0.906890   -0.474083
     26          6           0       -1.793738    0.728766   -2.175171
     27          1           0       -0.710202    0.638438   -2.182245
     28          1           0       -2.136001    0.689830   -3.215399
     29          1           0       -2.067896    1.703458   -1.776057
     30          6           0       -0.686577   -1.998045   -1.579282
     31          1           0       -0.364794   -3.027098   -1.491037
     32          1           0        0.026324   -1.319129   -2.025877
     33          8           0       -3.415864    1.849374    1.787556
     34          1           0       -2.606104    1.506856    1.384127
     35          1           0       -3.850398    1.039953    2.078203
     36          8           0       -3.401696   -1.190521    2.097582
     37          1           0       -3.021880   -1.343048    2.964575
     38          1           0       -2.671282   -0.831773    1.556354
 ---------------------------------------------------------------------

 The electronic state is 1-A.
 Alpha  occ. eigenvalues -- -101.69829 -19.23287 -19.22989 -19.21493 -10.35903
 Alpha  occ. eigenvalues --  -10.34992 -10.34832 -10.32803 -10.31288 -10.30144
 Alpha  occ. eigenvalues --  -10.30024 -10.29711 -10.29491 -10.29271 -10.29155
 Alpha  occ. eigenvalues --  -10.29102 -10.28989 -10.28925 -10.28194  -9.58386
 Alpha  occ. eigenvalues --   -7.33019  -7.32173  -7.32149  -1.12356  -1.09249
 Alpha  occ. eigenvalues --   -1.07826  -1.00087  -0.95873  -0.95057  -0.91766
 Alpha  occ. eigenvalues --   -0.86688  -0.86067  -0.85173  -0.80959  -0.80083
 Alpha  occ. eigenvalues --   -0.73776  -0.72620  -0.72274  -0.67310  -0.63410
 Alpha  occ. eigenvalues --   -0.61924  -0.61272  -0.60363  -0.58969  -0.58306
 Alpha  occ. eigenvalues --   -0.57889  -0.56142  -0.55668  -0.54868  -0.52903
 Alpha  occ. eigenvalues --   -0.51975  -0.51823  -0.50830  -0.50220  -0.49559
 Alpha  occ. eigenvalues --   -0.48356  -0.47864  -0.47452  -0.46916  -0.46293
 Alpha  occ. eigenvalues --   -0.45938  -0.45051  -0.44808  -0.44510  -0.44068
 Alpha  occ. eigenvalues --   -0.42558  -0.39767  -0.39053  -0.38676  -0.38061
 Alpha  occ. eigenvalues --   -0.37053  -0.35204  -0.34635  -0.32463  -0.27444
 Alpha virt. eigenvalues --   -0.03344   0.02002   0.04158   0.08899   0.10148
 Alpha virt. eigenvalues --    0.10710   0.10916   0.12367   0.13241   0.13753
 Alpha virt. eigenvalues --    0.14316   0.15848   0.16312   0.16543   0.17300

 Mulliken charges:
               1
     1  C   -0.118404
     2  C   -0.215237
     3  C    0.043565
     4  C    0.012923
     5  C   -0.176393
     6  C   -0.132108
     7  H    0.141054
     8  H    0.138694
     9  H    0.163332
    10  H    0.139274
    11  C    0.361662
    12  C    0.066537
    13  C   -0.192350
    14  H    0.162073
    15  C   -0.210063
    16  H    0.145273
    17  O   -0.665921
    18  Cl  -0.105957
    19  C    0.262392
    20  C   -0.184859
    21  H    0.150545
    22  C   -0.405667
    23  H    0.153193
    24  H    0.153813
    25  H    0.162310
    26  C   -0.390656
    27  H    0.147630
    28  H    0.167577
    29  H    0.154571
    30  C   -0.261267
    31  H    0.175072
    32  H    0.191274
    33  O   -0.663419
    34  H    0.325524
    35  H    0.332324
    36  O   -0.680995
    37  H    0.336013
    38  H    0.316669
 Sum of Mulliken charges =   0.00000

 Dipole moment (field-independent basis, Debye):
    X=              0.8533    Y=             -2.4439    Z=             -4.3914  Tot=              5.0976
 Quadrupole moment (field-independent basis, Debye-Ang):
   XX=           -135.5480   YY=           -114.8728   ZZ=           -117.7152
   XY=             11.6213   XZ=             10.9620   YZ=             -7.2413

 Normal termination of Gaussian 09 at Thu Feb  3 10:39:41 2022.
