 Gaussian 09, Revision D.01,
 Gaussian 09:  ES64L-G09RevD.01 24-Apr-2013

 -------------------------------------------------
 #n wB97XD/Def2TZVP scrf(smd,solvent=toluene) freq
 -------------------------------------------------

 -------------------------
 ts_claisen toluene - freq
 -------------------------
 Symbolic Z-matrix:
 Charge =  0 Multiplicity = 1

                         Standard orientation:
 ---------------------------------------------------------------------
 Center     Atomic      Atomic             Coordinates (Angstroms)
 Number     Number       Type             X           Y           Z
 ---------------------------------------------------------------------
      1          6           0       -2.692110    2.728299    0.301251
      2          6           0       -3.068050    1.419649    0.146451
      3          6           0       -2.112210    0.421369   -0.127839
      4          6           0       -0.751090    0.793729   -0.232209
      5          6           0       -0.398140    2.145020   -0.080909
      6          6           0       -1.345821    3.098529    0.182311
      7          1           0       -3.442311    3.480869    0.509371
      8          1           0       -4.110480    1.145549    0.230981
      9          1           0        0.643840    2.416970   -0.179529
     10          1           0       -1.057871    4.135999    0.295901
     11          6           0        0.270160   -0.201490   -0.528939
     12          6           0       -2.453600   -0.956671   -0.327209
     13          6           0       -0.143359   -1.535980   -0.666489
     14          1           0        0.575941   -2.264870   -1.012039
     15          6           0       -1.513679   -1.888771   -0.610799
     16          1           0       -1.802799   -2.917741   -0.779739
     17          8           0        1.505380    0.120720   -0.586129
     18         17           0       -4.122919   -1.450381   -0.228529
     19          6           0        2.482290   -0.360380    1.430401
     20          6           0        1.995841   -1.667200    1.378611
     21          1           0        2.657401   -2.419910    0.964861
     22          6           0        3.893260   -0.092029    1.048851
     23          1           0        3.967230    0.832291    0.473791
     24          1           0        4.481000    0.051391    1.962461
     25          1           0        4.329050   -0.906889    0.474081
     26          6           0        1.793740    0.728770    2.175171
     27          1           0        0.710200    0.638440    2.182241
     28          1           0        2.136000    0.689830    3.215401
     29          1           0        2.067900    1.703460    1.776061
     30          6           0        0.686581   -1.998050    1.579281
     31          1           0        0.364791   -3.027100    1.491041
     32          1           0       -0.026319   -1.319130    2.025881
     33          8           0        3.415860    1.849371   -1.787559
     34          1           0        2.606100    1.506860   -1.384129
     35          1           0        3.850400    1.039951   -2.078199
     36          8           0        3.401701   -1.190519   -2.097579
     37          1           0        3.021881   -1.343050   -2.964569
     38          1           0        2.671280   -0.831770   -1.556349
 ---------------------------------------------------------------------

 SCF Done:  E(RwB97XD) =  -1268.94531182     A.U. after   16 cycles

 The electronic state is 1-A.
 Alpha  occ. eigenvalues -- -101.69829 -19.23287 -19.22989 -19.21493 -10.35903
 Alpha  occ. eigenvalues --  -10.34992 -10.34832 -10.32803 -10.31288 -10.30144
 Alpha  occ. eigenvalues --  -10.30024 -10.29711 -10.29491 -10.29271 -10.29155
 Alpha  occ. eigenvalues --  -10.29102 -10.28989 -10.28925 -10.28194  -9.58386
 Alpha  occ. eigenvalues --   -7.33019  -7.32173  -7.32149  -1.12356  -1.09249
 Alpha  occ. eigenvalues --   -1.07826  -1.00087  -0.95873  -0.95057  -0.91766
 Alpha  occ. eigenvalues --   -0.86688  -0.86067  -0.85173  -0.80959  -0.80083
 Alpha  occ. eigenvalues --   -0.73776  -0.72620  -0.72274  -0.67310  -0.63410
 Alpha  occ. eigenvalues --   -0.61924  -0.61272  -0.60363  -0.58969  -0.58306
 Alpha  occ. eigenvalues --   -0.57889  -0.56142  -0.55668  -0.54868  -0.52903
 Alpha  occ. eigenvalues --   -0.51975  -0.51823  -0.50830  -0.50220  -0.49559
 Alpha  occ. eigenvalues --   -0.48356  -0.47863  -0.47452  -0.46916  -0.46293
 Alpha  occ. eigenvalues --   -0.45938  -0.45051  -0.44808  -0.44510  -0.44068
 Alpha  occ. eigenvalues --   -0.42558  -0.39767  -0.39053  -0.38676  -0.38061
 Alpha  occ. eigenvalues --   -0.37053  -0.35203  -0.34635  -0.32463  -0.27444
 Alpha virt. eigenvalues --   -0.03344   0.02002   0.04158   0.08899   0.10148
 Alpha virt. eigenvalues --    0.10710   0.10916   0.12367   0.13241   0.13753
 Alpha virt. eigenvalues --    0.14316   0.15848   0.16312   0.16543   0.17300

 Mulliken charges:
               1
     1  C   -0.118405
     2  C   -0.215237
     3  C    0.043566
     4  C    0.012925
     5  C   -0.176396
     6  C   -0.132107
     7  H    0.141053
     8  H    0.138695
     9  H    0.163333
    10  H    0.139274
    11  C    0.361664
    12  C    0.066532
    13  C   -0.192350
    14  H    0.162074
    15  C   -0.210064
    16  H    0.145273
    17  O   -0.665919
    18  Cl  -0.105957
    19  C    0.262396
    20  C   -0.184860
    21  H    0.150544
    22  C   -0.405671
    23  H    0.153194
    24  H    0.153814
    25  H    0.162312
    26  C   -0.390655
    27  H    0.147631
    28  H    0.167578
    29  H    0.154572
    30  C   -0.261268
    31  H    0.175074
    32  H    0.191272
    33  O   -0.663419
    34  H    0.325524
    35  H    0.332324
    36  O   -0.680996
    37  H    0.336013
    38  H    0.316670
 Sum of Mulliken charges =   0.00000

 Dipole moment (field-independent basis, Debye):
    X=             -0.8532    Y=             -2.4439    Z=              4.3915  Tot=              5.0976
 Quadrupole moment (field-independent basis, Debye-Ang):
   XX=           -135.5479   YY=           -114.8728   ZZ=           -117.7153
   XY=            -11.6211   XZ=             10.9621   YZ=              7.2413

  Exact polarizability: 356.289 -11.082 278.850  35.516   5.205 188.956
 Approx polarizability: 311.025   2.254 273.024  17.017   6.822 197.277

 ******    1 imaginary frequencies (negative Signs) ******

                      1                      2                      3
                      A                      A                      A
 Frequencies --   -228.7162                36.3766                45.0763
 Red. masses --      6.9346                 5.6063                 6.3588
 Frc consts  --      0.2137                 0.0044                 0.0076
 IR Inten    --     90.9655                 0.8773                 1.8510

                      4                      5                      6
                      A                      A                      A
 Frequencies --     60.5180                64.8625                78.6585
 Red. masses --      6.6450                 4.2083                 6.2252
 Frc consts  --      0.0143                 0.0104                 0.0227
 IR Inten    --      2.6169                 0.9557                10.1911

                      7                      8                      9
                      A                      A                      A
 Frequencies --     82.5179                89.0517               130.5517
 Red. masses --      6.6930                 5.1759                 4.3634
 Frc consts  --      0.0269                 0.0242                 0.0438
 IR Inten    --      5.8521                 1.9828                 0.7190

                     10                     11                     12
                      A                      A                      A
 Frequencies --    152.0722               158.8747               169.4069
 Red. masses --      3.7462                 4.8849                 1.9792
 Frc consts  --      0.0510                 0.0726                 0.0335
 IR Inten    --     15.9984                 1.1603                 8.3587

                     13                     14                     15
                      A                      A                      A
 Frequencies --    176.3579               195.4267               198.3607
 Red. masses --      4.3519                 1.2237                 3.2851
 Frc consts  --      0.0797                 0.0275                 0.0762
 IR Inten    --     29.1782                56.9634                23.2281

                     16                     17                     18
                      A                      A                      A
 Frequencies --    209.0228               221.6041               246.5009
 Red. masses --      1.4661                 5.7195                 1.4722
 Frc consts  --      0.0377                 0.1655                 0.0527
 IR Inten    --     28.7766                10.8005                 8.7507

                     19                     20                     21
                      A                      A                      A
 Frequencies --    265.1390               308.1468               343.8004
 Red. masses --      3.6841                 2.6548                 3.1161
 Frc consts  --      0.1526                 0.1485                 0.2170
 IR Inten    --     18.3192                15.8673                11.0180

                     22                     23                     24
                      A                      A                      A
 Frequencies --    358.2475               364.1917               385.1835
 Red. masses --      4.0835                 4.6259                 1.1203
 Frc consts  --      0.3088                 0.3615                 0.0979
 IR Inten    --     13.2590                 5.6849                43.3009

                     25                     26                     27
                      A                      A                      A
 Frequencies --    397.3208               420.4807               424.3006
 Red. masses --      6.2335                 1.2985                 1.8635
 Frc consts  --      0.5798                 0.1353                 0.1977
 IR Inten    --      2.0544                47.4408                32.4361

                     28                     29                     30
                      A                      A                      A
 Frequencies --    434.7071               461.2665               466.8511
 Red. masses --      2.2684                 1.2718                 1.6488
 Frc consts  --      0.2526                 0.1594                 0.2117
 IR Inten    --     10.0915                57.8756                29.2381

                     31                     32                     33
                      A                      A                      A
 Frequencies --    488.7605               499.7319               538.9618
 Red. masses --      3.5626                 7.4937                 5.5610
 Frc consts  --      0.5014                 1.1026                 0.9517
 IR Inten    --      3.0391                 5.3165                 5.1122

                     34                     35                     36
                      A                      A                      A
 Frequencies --    541.8425               594.7020               616.3378
 Red. masses --      2.8834                 5.0874                 2.1753
 Frc consts  --      0.4988                 1.0601                 0.4869
 IR Inten    --      1.4449                12.3932                32.6051

                     37                     38                     39
                      A                      A                      A
 Frequencies --    624.7364               671.3801               707.5952
 Red. masses --      1.2703                 6.7919                 3.1589
 Frc consts  --      0.2921                 1.8038                 0.9319
 IR Inten    --    152.3505                32.7117                13.8087

                     40                     41                     42
                      A                      A                      A
 Frequencies --    727.6575               755.0385               787.5369
 Red. masses --      1.3528                 4.5833                 1.1487
 Frc consts  --      0.4220                 1.5395                 0.4198
 IR Inten    --     24.1232                27.7800                87.6157

                     43                     44                     45
                      A                      A                      A
 Frequencies --    793.4150               794.2324               805.9157
 Red. masses --      2.8130                 1.5434                 4.5651
 Frc consts  --      1.0433                 0.5736                 1.7470
 IR Inten    --     13.2377                67.2872                 9.2631

                     46                     47                     48
                      A                      A                      A
 Frequencies --    825.9889               887.4282               909.2594
 Red. masses --      2.8239                 1.2703                 1.7372
 Frc consts  --      1.1351                 0.5894                 0.8462
 IR Inten    --      3.7581               130.5080                 0.7080

                     49                     50                     51
                      A                      A                      A
 Frequencies --    926.1225               950.1420               973.3195
 Red. masses --      1.2548                 1.2980                 5.4716
 Frc consts  --      0.6341                 0.6904                 3.0541
 IR Inten    --      1.3397                58.9621                32.5843

                     52                     53                     54
                      A                      A                      A
 Frequencies --    991.4378               998.2111              1007.0020
 Red. masses --      1.2855                 1.3586                 1.3085
 Frc consts  --      0.7445                 0.7976                 0.7818
 IR Inten    --      7.7803                 2.1128                 7.4472

                     55                     56                     57
                      A                      A                      A
 Frequencies --   1026.3050              1028.4343              1035.3338
 Red. masses --      1.3317                 1.2831                 1.3402
 Frc consts  --      0.8264                 0.7996                 0.8464
 IR Inten    --      0.3343                14.0071                19.6660

                     58                     59                     60
                      A                      A                      A
 Frequencies --   1062.2120              1082.1676              1095.1266
 Red. masses --      2.4809                 1.6799                 2.1883
 Frc consts  --      1.6492                 1.1591                 1.5463
 IR Inten    --     31.9327               126.4256                20.9816

                     61                     62                     63
                      A                      A                      A
 Frequencies --   1098.1774              1154.7618              1178.0038
 Red. masses --      1.5065                 1.9794                 1.2715
 Frc consts  --      1.0704                 1.5552                 1.0396
 IR Inten    --      7.2024                14.8944                11.0111

                     64                     65                     66
                      A                      A                      A
 Frequencies --   1187.6787              1225.5027              1271.4639
 Red. masses --      1.5530                 1.6647                 2.2350
 Frc consts  --      1.2907                 1.4730                 2.1288
 IR Inten    --      4.5343                28.3038                11.9266

                     67                     68                     69
                      A                      A                      A
 Frequencies --   1273.6528              1310.6178              1331.0134
 Red. masses --      1.8176                 1.7781                 3.6369
 Frc consts  --      1.7372                 1.7995                 3.7962
 IR Inten    --     20.7805                41.4702                14.3829

                     70                     71                     72
                      A                      A                      A
 Frequencies --   1361.4073              1371.8533              1402.3514
 Red. masses --      1.9619                 1.4719                 6.6273
 Frc consts  --      2.1424                 1.6321                 7.6789
 IR Inten    --     41.7140                22.2835                12.4300

                     73                     74                     75
                      A                      A                      A
 Frequencies --   1412.5209              1421.6301              1433.2974
 Red. masses --      1.2327                 1.6227                 2.5217
 Frc consts  --      1.4490                 1.9322                 3.0522
 IR Inten    --     21.3793                51.4930                15.1632

                     76                     77                     78
                      A                      A                      A
 Frequencies --   1456.1981              1464.3423              1483.4555
 Red. masses --      1.1492                 1.1522                 1.5284
 Frc consts  --      1.4358                 1.4557                 1.9818
 IR Inten    --     41.7854                47.3074                46.2385

                     79                     80                     81
                      A                      A                      A
 Frequencies --   1486.1251              1491.9469              1512.7870
 Red. masses --      1.6489                 1.9815                 1.3572
 Frc consts  --      2.1456                 2.5987                 1.8299
 IR Inten    --     34.8661                17.7466               168.2451

                     82                     83                     84
                      A                      A                      A
 Frequencies --   1527.9911              1555.2416              1596.4953
 Red. masses --      1.6587                 3.0817                 3.4307
 Frc consts  --      2.2817                 4.3918                 5.1520
 IR Inten    --     76.3366                41.5138               115.8790

                     85                     86                     87
                      A                      A                      A
 Frequencies --   1641.1820              1654.6468              1667.3867
 Red. masses --      4.5143                 6.3673                 1.0838
 Frc consts  --      7.1640                10.2711                 1.7753
 IR Inten    --    274.9658                43.5709                63.8565

                     88                     89                     90
                      A                      A                      A
 Frequencies --   1688.7111              1700.0525              3049.3107
 Red. masses --      6.2620                 1.0928                 1.0441
 Frc consts  --     10.5214                 1.8609                 5.7199
 IR Inten    --     12.7797               121.5073                 3.9372

                     91                     92                     93
                      A                      A                      A
 Frequencies --   3055.9487              3121.5416              3141.8826
 Red. masses --      1.0493                 1.0923                 1.0838
 Frc consts  --      5.7736                 6.2707                 6.3034
 IR Inten    --     13.1594                 1.2223                 3.6804

                     94                     95                     96
                      A                      A                      A
 Frequencies --   3172.0157              3187.4050              3190.6548
 Red. masses --      1.1032                 1.0919                 1.0877
 Frc consts  --      6.5402                 6.5358                 6.5241
 IR Inten    --      6.8791                 3.6332                17.5219

                     97                     98                     99
                      A                      A                      A
 Frequencies --   3197.8343              3206.0770              3222.3063
 Red. masses --      1.0728                 1.0877                 1.0898
 Frc consts  --      6.4634                 6.5876                 6.6671
 IR Inten    --      5.4476                 6.4102                 5.6956

                    100                    101                    102
                      A                      A                      A
 Frequencies --   3223.2514              3236.2074              3238.2006
 Red. masses --      1.0908                 1.0937                 1.0930
 Frc consts  --      6.6768                 6.7489                 6.7530
 IR Inten    --      7.7586                 3.7630                 4.3282

                    103                    104                    105
                      A                      A                      A
 Frequencies --   3243.2755              3286.1249              3535.4900
 Red. masses --      1.0945                 1.1167                 1.0628
 Frc consts  --      6.7835                 7.1051                 7.8272
 IR Inten    --     10.0680                 0.6853               888.1644

                    106                    107                    108
                      A                      A                      A
 Frequencies --   3750.8549              3842.1612              3912.1311
 Red. masses --      1.0533                 1.0731                 1.0675
 Frc consts  --      8.7313                 9.3336                 9.6263
 IR Inten    --    399.5154               189.4655                88.0032

 - Thermochemistry -
 -------------------
 Temperature   298.150 Kelvin.  Pressure   1.00000 Atm.
 Atom     1 has atomic number  6 and mass  12.00000

 Molecular mass:   282.10227 amu.
 Principal axes and moments of inertia in atomic units:
                           1         2         3
     Eigenvalues --  3705.138617925.559729183.09154
           X            0.99983  -0.01829   0.00005
           Y            0.01829   0.99972   0.01508
           Z           -0.00033  -0.01508   0.99989
 This molecule is an asymmetric top.
 Rotational symmetry number  1.
 Warning -- assumption of classical behavior for rotation
           may cause significant error
 Rotational temperatures (Kelvin)      0.02338     0.01093     0.00943
 Rotational constants (GHZ):           0.48709     0.22771     0.19653
    1 imaginary frequencies ignored.
 Zero-point vibrational energy     812649.4 (Joules/Mol)
                                  194.22788 (Kcal/Mol)
 Warning -- explicit consideration of  35 degrees of freedom as
           vibrations may cause significant error
 Vibrational temperatures:     52.34    64.85    87.07    93.32   113.17
          (Kelvin)            118.72   128.13   187.83   218.80   228.58
                              243.74   253.74   281.18   285.40   300.74
                              318.84   354.66   381.48   443.35   494.65
                              515.44   523.99   554.19   571.66   604.98
                              610.47   625.45   663.66   671.69   703.22
                              719.00   775.44   779.59   855.64   886.77
                              898.86   965.97  1018.07  1046.94  1086.33
                             1133.09  1141.55  1142.72  1159.53  1188.41
                             1276.81  1308.22  1332.48  1367.04  1400.39
                             1426.46  1436.20  1448.85  1476.62  1479.69
                             1489.61  1528.28  1557.00  1575.64  1580.03
                             1661.44  1694.88  1708.80  1763.22  1829.35
                             1832.50  1885.68  1915.03  1958.76  1973.79
                             2017.67  2032.30  2045.41  2062.19  2095.14
                             2106.86  2134.36  2138.20  2146.58  2176.56
                             2198.44  2237.64  2297.00  2361.29  2380.66
                             2398.99  2429.68  2445.99  4387.27  4396.82
                             4491.20  4520.46  4563.82  4585.96  4590.63
                             4600.96  4612.82  4636.17  4637.53  4656.17
                             4659.04  4666.34  4727.99  5086.78  5396.64
                             5528.01  5628.68

 Zero-point correction=                           0.309522 (Hartree/Particle)
 Thermal correction to Energy=                    0.330673
 Thermal correction to Enthalpy=                  0.331617
 Thermal correction to Gibbs Free Energy=         0.259922
 Sum of electronic and zero-point Energies=          -1268.635790
 Sum of electronic and thermal Energies=             -1268.614639
 Sum of electronic and thermal Enthalpies=           -1268.613695
 Sum of electronic and thermal Free Energies=        -1268.685390

                     E (Thermal)             CV                S
                      KCal/Mol        Cal/Mol-Kelvin    Cal/Mol-Kelvin
 Total                  207.500             79.208            150.894
 Electronic               0.000              0.000              0.000
 Translational            0.889              2.981             42.809
 Rotational               0.889              2.981             33.955
 Vibrational            205.723             73.246             74.130
 Vibration     1          0.594              1.982              5.447
 Vibration     2          0.595              1.979              5.023
 Vibration     3          0.597              1.973              4.440
 Vibration     4          0.597              1.971              4.304
 Vibration     5          0.600              1.964              3.924
 Vibration     6          0.600              1.961              3.830
 Vibration     7          0.602              1.957              3.681
 Vibration     8          0.612              1.923              2.938
 Vibration     9          0.619              1.900              2.646
 Vibration    10          0.621              1.893              2.563
 Vibration    11          0.625              1.880              2.442
 Vibration    12          0.628              1.871              2.367
 Vibration    13          0.636              1.846              2.176
 Vibration    14          0.637              1.842              2.148
 Vibration    15          0.642              1.827              2.052
 Vibration    16          0.648              1.808              1.946
 Vibration    17          0.661              1.769              1.755
 Vibration    18          0.671              1.737              1.628
 Vibration    19          0.698              1.658              1.372
 Vibration    20          0.723              1.588              1.194
 Vibration    21          0.733              1.558              1.130
 Vibration    22          0.738              1.546              1.104
 Vibration    23          0.754              1.502              1.019
 Vibration    24          0.764              1.476              0.973
 Vibration    25          0.783              1.426              0.890
 Vibration    26          0.786              1.417              0.877
 Vibration    27          0.795              1.395              0.843
 Vibration    28          0.819              1.336              0.762
 Vibration    29          0.824              1.324              0.746
 Vibration    30          0.845              1.275              0.687
 Vibration    31          0.855              1.251              0.659
 Vibration    32          0.894              1.164              0.568
 Vibration    33          0.897              1.158              0.561
 Vibration    34          0.952              1.043              0.459
 Vibration    35          0.976              0.997              0.422

 Normal termination of Gaussian 09 at Fri Feb  4 18:39:55 2022.
