 Gaussian 09, Revision D.01,
 Gaussian 09:  ES64L-G09RevD.01 24-Apr-2013

 ----------------------------------------------------------------------
 # freq scrf=(cpcm,solvent=toluene) geom=connectivity def2svp empirical
 dispersion=gd3 m062x
 ----------------------------------------------------------------------

 -------------------
 Title Card Required
 -------------------
 Symbolic Z-matrix:
 Charge =  0 Multiplicity = 1

                         Standard orientation:
 ---------------------------------------------------------------------
 Center     Atomic      Atomic             Coordinates (Angstroms)
 Number     Number       Type             X           Y           Z
 ---------------------------------------------------------------------
      1          6           0        2.438409    2.804732   -0.560239
      2          6           0        2.933167    1.543545   -0.304376
      3          6           0        2.068116    0.494211    0.088788
      4          6           0        0.673585    0.754619    0.201875
      5          6           0        0.198300    2.062781   -0.043729
      6          6           0        1.062054    3.070358   -0.420830
      7          1           0        3.119043    3.602296   -0.861451
      8          1           0        3.999636    1.340637   -0.395491
      9          1           0       -0.862897    2.276560    0.081703
     10          1           0        0.677512    4.074203   -0.605417
     11          6           0       -0.248016   -0.308415    0.609426
     12          6           0        2.548219   -0.828486    0.400719
     13          6           0        0.296780   -1.593979    0.836734
     14          1           0       -0.355973   -2.352838    1.265376
     15          6           0        1.702916   -1.821922    0.794200
     16          1           0        2.103169   -2.804255    1.046727
     17          8           0       -1.513474   -0.120376    0.645064
     18         17           0        4.257348   -1.160225    0.302964
     19          6           0       -2.429662   -0.867704   -1.173817
     20          6           0       -1.769566   -2.107747   -1.118844
     21          1           0       -2.314981   -2.940246   -0.665786
     22          6           0       -3.859998   -0.793326   -0.748098
     23          1           0       -4.053840    0.176027   -0.271882
     24          1           0       -4.499653   -0.858324   -1.644347
     25          1           0       -4.127616   -1.602798   -0.058261
     26          6           0       -1.950142    0.270925   -2.017961
     27          1           0       -0.858107    0.316149   -2.108373
     28          1           0       -2.370926    0.145841   -3.029736
     29          1           0       -2.324098    1.219410   -1.610214
     30          6           0       -0.414252   -2.245024   -1.304111
     31          1           0        0.060256   -3.221349   -1.195526
     32          1           0        0.186479   -1.476353   -1.794483
     33          8           0       -3.163471    2.156277    0.577787
     34          1           0       -2.509141    1.436168    0.605906
     35          1           0       -3.780538    1.846881    1.257030
     36          8           0       -3.766239   -0.030567    2.318199
     37          1           0       -3.470015    0.177974    3.211631
     38          1           0       -2.947197   -0.282241    1.855397
 ---------------------------------------------------------------------

 SCF Done:  E(RM062X) =  -1267.76406914     A.U. after   15 cycles

 The electronic state is 1-A.
 Alpha  occ. eigenvalues -- -102.64358 -19.63373 -19.61372 -19.59704 -10.62569
 Alpha  occ. eigenvalues --  -10.62390 -10.61848 -10.60092 -10.58356 -10.57561
 Alpha  occ. eigenvalues --  -10.57507 -10.57384 -10.56657 -10.56572 -10.56444
 Alpha  occ. eigenvalues --  -10.56375 -10.56345 -10.55938 -10.55344  -9.81354
 Alpha  occ. eigenvalues --   -7.54054  -7.53382  -7.53376  -1.13535  -1.09401
 Alpha  occ. eigenvalues --   -1.07547  -0.99794  -0.95265  -0.93624  -0.91126
 Alpha  occ. eigenvalues --   -0.85262  -0.84860  -0.83797  -0.78970  -0.78793
 Alpha  occ. eigenvalues --   -0.71656  -0.71002  -0.70746  -0.65760  -0.61317
 Alpha  occ. eigenvalues --   -0.61030  -0.59503  -0.58677  -0.57281  -0.56071
 Alpha  occ. eigenvalues --   -0.55873  -0.54126  -0.53645  -0.53325  -0.51508
 Alpha  occ. eigenvalues --   -0.50078  -0.49913  -0.48795  -0.48275  -0.47390
 Alpha  occ. eigenvalues --   -0.46429  -0.45962  -0.45795  -0.45268  -0.44504
 Alpha  occ. eigenvalues --   -0.44081  -0.43422  -0.42774  -0.42473  -0.42054
 Alpha  occ. eigenvalues --   -0.40725  -0.37824  -0.37560  -0.37264  -0.36237
 Alpha  occ. eigenvalues --   -0.35394  -0.34206  -0.32573  -0.30079  -0.25554
 Alpha virt. eigenvalues --   -0.05487  -0.01549   0.00873   0.05472   0.07670
 Alpha virt. eigenvalues --    0.08663   0.09296   0.10843   0.11495   0.11683
 Alpha virt. eigenvalues --    0.12629   0.13718   0.14530   0.15599   0.16040

 Mulliken charges:
               1
     1  C   -0.006457
     2  C   -0.062281
     3  C    0.063788
     4  C   -0.023358
     5  C   -0.064629
     6  C   -0.015272
     7  H    0.034616
     8  H    0.022267
     9  H    0.003950
    10  H    0.033160
    11  C    0.213976
    12  C    0.022674
    13  C   -0.146293
    14  H    0.035688
    15  C    0.021694
    16  H    0.027446
    17  O   -0.415988
    18  Cl  -0.104710
    19  C   -0.161585
    20  C   -0.047778
    21  H    0.041069
    22  C    0.004483
    23  H    0.031928
    24  H    0.074680
    25  H    0.059328
    26  C   -0.000184
    27  H    0.063892
    28  H    0.077512
    29  H    0.055807
    30  C    0.001696
    31  H    0.078155
    32  H    0.079746
    33  O   -0.345828
    34  H    0.161662
    35  H    0.178897
    36  O   -0.360939
    37  H    0.183949
    38  H    0.183236
 Sum of Mulliken charges =   0.00000

 Dipole moment (field-independent basis, Debye):
    X=              0.6118    Y=             -3.1766    Z=             -1.3686  Tot=              3.5125
 Quadrupole moment (field-independent basis, Debye-Ang):
   XX=           -131.5117   YY=           -113.7144   ZZ=           -114.0754
   XY=             10.2041   XZ=              0.7402   YZ=             -1.1066

  Exact polarizability: 322.370  17.507 257.226  21.323 -12.026 158.153
 Approx polarizability: 335.861   5.861 285.232  15.404 -15.165 184.360

 ******    1 imaginary frequencies (negative Signs) ******

                      1                      2                      3
                      A                      A                      A
 Frequencies --   -339.7386                44.1848                47.9612
 Red. masses --      8.0385                 5.2379                 6.9900
 Frc consts  --      0.5467                 0.0060                 0.0095
 IR Inten    --     66.7255                 0.7174                 3.5952

                      4                      5                      6
                      A                      A                      A
 Frequencies --     72.4331                75.4874                82.7799
 Red. masses --      3.9431                 4.6138                 5.8912
 Frc consts  --      0.0122                 0.0155                 0.0238
 IR Inten    --     10.1959                 3.6088                 3.5881

                      7                      8                      9
                      A                      A                      A
 Frequencies --    121.3159               128.2529               138.2208
 Red. masses --      5.2078                 5.8684                 5.0547
 Frc consts  --      0.0452                 0.0569                 0.0569
 IR Inten    --      1.0893                15.4884                 3.3268

                     10                     11                     12
                      A                      A                      A
 Frequencies --    155.7895               166.8680               185.8558
 Red. masses --      4.8495                 2.4611                 1.7935
 Frc consts  --      0.0693                 0.0404                 0.0365
 IR Inten    --      4.9330                11.1755                31.8472

                     13                     14                     15
                      A                      A                      A
 Frequencies --    196.3483               206.4827               219.8964
 Red. masses --      1.6627                 4.4055                 2.2109
 Frc consts  --      0.0378                 0.1107                 0.0630
 IR Inten    --     68.0527                23.4407                14.1787

                     16                     17                     18
                      A                      A                      A
 Frequencies --    225.4908               242.6345               257.8444
 Red. masses --      6.2029                 2.0911                 1.2652
 Frc consts  --      0.1858                 0.0725                 0.0496
 IR Inten    --      7.4762                22.6972                14.1209

                     19                     20                     21
                      A                      A                      A
 Frequencies --    269.7707               304.1809               327.7493
 Red. masses --      3.6455                 2.3664                 3.2839
 Frc consts  --      0.1563                 0.1290                 0.2078
 IR Inten    --      9.6118                13.0417                22.5393

                     22                     23                     24
                      A                      A                      A
 Frequencies --    355.0963               363.9968               375.7655
 Red. masses --      6.1965                 3.8537                 1.0864
 Frc consts  --      0.4604                 0.3008                 0.0904
 IR Inten    --     16.2970                 0.5912                51.3374

                     25                     26                     27
                      A                      A                      A
 Frequencies --    394.2752               410.5323               418.4841
 Red. masses --      5.8918                 1.3170                 1.9022
 Frc consts  --      0.5396                 0.1308                 0.1963
 IR Inten    --      3.5091               122.5177                45.7969

                     28                     29                     30
                      A                      A                      A
 Frequencies --    434.1572               464.3366               489.0237
 Red. masses --      2.7406                 2.2894                 3.8912
 Frc consts  --      0.3044                 0.2908                 0.5483
 IR Inten    --     13.8610                 7.6383                 3.8665

                     31                     32                     33
                      A                      A                      A
 Frequencies --    492.4475               501.8130               528.2244
 Red. masses --      5.0110                 1.1589                 2.5861
 Frc consts  --      0.7160                 0.1719                 0.4251
 IR Inten    --      0.7298                93.3861                 3.1307

                     34                     35                     36
                      A                      A                      A
 Frequencies --    534.5183               590.5352               617.2758
 Red. masses --      5.7913                 4.6362                 3.2370
 Frc consts  --      0.9749                 0.9526                 0.7267
 IR Inten    --      6.3211                 4.0161                 0.6620

                     37                     38                     39
                      A                      A                      A
 Frequencies --    655.6136               665.4941               710.7825
 Red. masses --      1.0611                 6.6341                 3.1205
 Frc consts  --      0.2687                 1.7311                 0.9289
 IR Inten    --    215.9588                34.2639                 6.8510

                     40                     41                     42
                      A                      A                      A
 Frequencies --    743.3849               748.9913               756.1445
 Red. masses --      1.3803                 1.1798                 4.9401
 Frc consts  --      0.4494                 0.3899                 1.6642
 IR Inten    --     10.2037               156.7535                32.4831

                     43                     44                     45
                      A                      A                      A
 Frequencies --    794.5446               802.0890               805.3996
 Red. masses --      3.8812                 1.9139                 2.0435
 Frc consts  --      1.4436                 0.7254                 0.7810
 IR Inten    --     10.7417                14.2410                71.6371

                     46                     47                     48
                      A                      A                      A
 Frequencies --    829.7449               881.4739               914.1074
 Red. masses --      3.2063                 1.3402                 1.2989
 Frc consts  --      1.3006                 0.6135                 0.6395
 IR Inten    --      3.0143                75.6094                 1.4108

                     49                     50                     51
                      A                      A                      A
 Frequencies --    920.6274               939.6965               963.8470
 Red. masses --      1.5344                 1.2379                 4.8640
 Frc consts  --      0.7662                 0.6440                 2.6623
 IR Inten    --      2.8457                68.3258                32.3116

                     52                     53                     54
                      A                      A                      A
 Frequencies --    981.7950               985.2327              1014.9733
 Red. masses --      1.3452                 1.2598                 1.2266
 Frc consts  --      0.7640                 0.7205                 0.7445
 IR Inten    --      4.7380                 2.5040                10.6854

                     55                     56                     57
                      A                      A                      A
 Frequencies --   1022.2605              1036.7570              1053.8035
 Red. masses --      1.3579                 1.3269                 1.3701
 Frc consts  --      0.8361                 0.8403                 0.8965
 IR Inten    --      4.0678                 8.3019                10.5701

                     58                     59                     60
                      A                      A                      A
 Frequencies --   1062.3262              1068.2868              1076.6110
 Red. masses --      1.7551                 2.0880                 1.5143
 Frc consts  --      1.1670                 1.4040                 1.0342
 IR Inten    --    122.8027                 8.8658                17.4888

                     61                     62                     63
                      A                      A                      A
 Frequencies --   1088.6828              1138.8677              1166.1610
 Red. masses --      1.7353                 1.9870                 1.1557
 Frc consts  --      1.2118                 1.5185                 0.9260
 IR Inten    --      8.1381                 6.9302                 9.3355

                     64                     65                     66
                      A                      A                      A
 Frequencies --   1172.2763              1210.9097              1259.2610
 Red. masses --      1.4060                 1.9113                 1.7303
 Frc consts  --      1.1384                 1.6512                 1.6166
 IR Inten    --      2.5533                40.3897                17.6301

                     67                     68                     69
                      A                      A                      A
 Frequencies --   1268.7141              1290.2647              1334.8387
 Red. masses --      1.6247                 1.6163                 2.3152
 Frc consts  --      1.5408                 1.5853                 2.4305
 IR Inten    --     23.3808                17.3255                11.1492

                     70                     71                     72
                      A                      A                      A
 Frequencies --   1345.7102              1352.6513              1393.9624
 Red. masses --      1.3875                 3.3713                 1.3018
 Frc consts  --      1.4804                 3.6343                 1.4904
 IR Inten    --     11.8838                13.4849                12.3527

                     73                     74                     75
                      A                      A                      A
 Frequencies --   1407.6188              1419.3258              1429.5979
 Red. masses --      1.4558                 4.9720                 1.7546
 Frc consts  --      1.6996                 5.9012                 2.1128
 IR Inten    --     31.6698                20.3049                22.2766

                     76                     77                     78
                      A                      A                      A
 Frequencies --   1435.3780              1440.6183              1451.8102
 Red. masses --      1.3109                 1.5378                 1.1066
 Frc consts  --      1.5913                 1.8804                 1.3742
 IR Inten    --      4.8566                69.8312                12.4607

                     79                     80                     81
                      A                      A                      A
 Frequencies --   1471.2846              1488.9977              1503.7853
 Red. masses --      1.2423                 2.5904                 2.6689
 Frc consts  --      1.5845                 3.3838                 3.5560
 IR Inten    --     69.1081                 9.0753                53.5360

                     82                     83                     84
                      A                      A                      A
 Frequencies --   1520.8169              1561.4680              1608.5582
 Red. masses --      2.2884                 3.8764                 5.1593
 Frc consts  --      3.1185                 5.5685                 7.8653
 IR Inten    --     91.1733                47.4590               130.8543

                     85                     86                     87
                      A                      A                      A
 Frequencies --   1648.7351              1662.3551              1674.2885
 Red. masses --      1.1123                 5.1550                 7.5445
 Frc consts  --      1.7815                 8.3932                12.4606
 IR Inten    --     24.8576               350.9684                39.1154

                     88                     89                     90
                      A                      A                      A
 Frequencies --   1706.3316              1717.1499              3052.8378
 Red. masses --      3.3687                 1.2823                 1.0423
 Frc consts  --      5.7789                 2.2277                 5.7235
 IR Inten    --      6.4381                96.0206                 5.4487

                     91                     92                     93
                      A                      A                      A
 Frequencies --   3057.5785              3145.4576              3149.1960
 Red. masses --      1.0417                 1.0957                 1.0951
 Frc consts  --      5.7377                 6.3872                 6.3989
 IR Inten    --     10.2843                 4.5935                 5.9855

                     94                     95                     96
                      A                      A                      A
 Frequencies --   3176.6098              3184.5760              3190.2207
 Red. masses --      1.0643                 1.0942                 1.1013
 Frc consts  --      6.3275                 6.5382                 6.6038
 IR Inten    --      9.9025                 5.7636                 3.3605

                     97                     98                     99
                      A                      A                      A
 Frequencies --   3194.8574              3209.1317              3218.2421
 Red. masses --      1.1048                 1.0888                 1.0930
 Frc consts  --      6.6440                 6.6063                 6.6699
 IR Inten    --      4.9842                 5.7697                 4.1728

                    100                    101                    102
                      A                      A                      A
 Frequencies --   3222.3643              3239.2485              3240.0983
 Red. masses --      1.0949                 1.0942                 1.0953
 Frc consts  --      6.6986                 6.7647                 6.7751
 IR Inten    --      7.4816                 1.6118                 1.4029

                    103                    104                    105
                      A                      A                      A
 Frequencies --   3248.7025              3280.7301              3706.7635
 Red. masses --      1.0942                 1.1182                 1.0612
 Frc consts  --      6.8039                 7.0907                 8.5906
 IR Inten    --      9.6139                 0.2944               104.8085

                    106                    107                    108
                      A                      A                      A
 Frequencies --   3731.3805              3849.5203              3919.1474
 Red. masses --      1.0573                 1.0662                 1.0704
 Frc consts  --      8.6734                 9.3092                 9.6872
 IR Inten    --    943.6454               263.7097               127.8122

 - Thermochemistry -
 -------------------
 Temperature   298.150 Kelvin.  Pressure   1.00000 Atm.
 Atom     1 has atomic number  6 and mass  12.00000

 Molecular mass:   282.10227 amu.
 Principal axes and moments of inertia in atomic units:
                           1         2         3
     Eigenvalues --  3550.587177774.668409306.39015
           X            0.99987   0.01608  -0.00255
           Y           -0.01609   0.99986  -0.00343
           Z            0.00249   0.00347   0.99999
 This molecule is an asymmetric top.
 Rotational symmetry number  1.
 Warning -- assumption of classical behavior for rotation
           may cause significant error
 Rotational temperatures (Kelvin)      0.02439     0.01114     0.00931
 Rotational constants (GHZ):           0.50829     0.23213     0.19392
    1 imaginary frequencies ignored.
 Zero-point vibrational energy     813826.1 (Joules/Mol)
                                  194.50910 (Kcal/Mol)
 Warning -- explicit consideration of  35 degrees of freedom as
           vibrations may cause significant error
 Vibrational temperatures:     63.57    69.01   104.21   108.61   119.10
          (Kelvin)            174.55   184.53   198.87   224.15   240.09
                              267.40   282.50   297.08   316.38   324.43
                              349.10   370.98   388.14   437.65   471.56
                              510.90   523.71   540.64   567.27   590.66
                              602.10   624.65   668.08   703.60   708.52
                              722.00   760.00   769.05   849.65   888.12
                              943.28   957.50  1022.66  1069.56  1077.63
                             1087.92  1143.17  1154.03  1158.79  1193.82
                             1268.24  1315.20  1324.58  1352.01  1386.76
                             1412.58  1417.53  1460.32  1470.80  1491.66
                             1516.19  1528.45  1537.02  1549.00  1566.37
                             1638.57  1677.84  1686.64  1742.23  1811.79
                             1825.39  1856.40  1920.53  1936.17  1946.16
                             2005.60  2025.25  2042.09  2056.87  2065.19
                             2072.73  2088.83  2116.85  2142.33  2163.61
                             2188.11  2246.60  2314.35  2372.16  2391.76
                             2408.92  2455.03  2470.59  4392.35  4399.17
                             4525.61  4530.98  4570.43  4581.89  4590.01
                             4596.68  4617.22  4630.33  4636.26  4660.55
                             4661.77  4674.15  4720.23  5333.20  5368.62
                             5538.59  5638.77

 Zero-point correction=                           0.309970 (Hartree/Particle)
 Thermal correction to Energy=                    0.330727
 Thermal correction to Enthalpy=                  0.331671
 Thermal correction to Gibbs Free Energy=         0.261828
 Sum of electronic and zero-point Energies=          -1267.454099
 Sum of electronic and thermal Energies=             -1267.433342
 Sum of electronic and thermal Enthalpies=           -1267.432398
 Sum of electronic and thermal Free Energies=        -1267.502242

                     E (Thermal)             CV                S
                      KCal/Mol        Cal/Mol-Kelvin    Cal/Mol-Kelvin
 Total                  207.534             79.137            146.999
 Electronic               0.000              0.000              0.000
 Translational            0.889              2.981             42.809
 Rotational               0.889              2.981             33.907
 Vibrational            205.757             73.175             70.282
 Vibration     1          0.595              1.980              5.062
 Vibration     2          0.595              1.978              4.900
 Vibration     3          0.599              1.967              4.086
 Vibration     4          0.599              1.965              4.005
 Vibration     5          0.600              1.961              3.824
 Vibration     6          0.609              1.931              3.079
 Vibration     7          0.611              1.925              2.972
 Vibration     8          0.614              1.915              2.828
 Vibration     9          0.620              1.896              2.600
 Vibration    10          0.624              1.883              2.470
 Vibration    11          0.632              1.859              2.269
 Vibration    12          0.636              1.845              2.167
 Vibration    13          0.641              1.831              2.075
 Vibration    14          0.647              1.811              1.960
 Vibration    15          0.650              1.802              1.915
 Vibration    16          0.659              1.775              1.783
 Vibration    17          0.667              1.750              1.676
 Vibration    18          0.674              1.729              1.598
 Vibration    19          0.695              1.666              1.394
 Vibration    20          0.711              1.620              1.271
 Vibration    21          0.731              1.565              1.143
 Vibration    22          0.738              1.546              1.105
 Vibration    23          0.747              1.522              1.056
 Vibration    24          0.761              1.482              0.984
 Vibration    25          0.775              1.447              0.925
 Vibration    26          0.781              1.430              0.897
 Vibration    27          0.795              1.396              0.845
 Vibration    28          0.822              1.329              0.754
 Vibration    29          0.845              1.274              0.686
 Vibration    30          0.848              1.267              0.677
 Vibration    31          0.857              1.246              0.654
 Vibration    32          0.883              1.188              0.591
 Vibration    33          0.890              1.174              0.577
 Vibration    34          0.948              1.052              0.466
 Vibration    35          0.977              0.995              0.421

 Normal termination of Gaussian 09 at Wed Sep 16 19:35:25 2020.
