 Gaussian 09, Revision D.01,
 Gaussian 09:  ES64L-G09RevD.01 24-Apr-2013

 ----------------------------------------------------------------------
 # opt freq scrf=(cpcm,solvent=toluene) geom=connectivity def2svp m062x
  empiricaldispersion=gd3
 ----------------------------------------------------------------------

 -------------------
 Title Card Required
 -------------------
 Symbolic Z-matrix:
 Charge =  0 Multiplicity = 1

 SCF Done:  E(RM062X) =  -1267.80214706     A.U. after   14 cycles
 SCF Done:  E(RM062X) =  -1267.80208531     A.U. after    9 cycles
 SCF Done:  E(RM062X) =  -1267.80214448     A.U. after    9 cycles
 SCF Done:  E(RM062X) =  -1267.80214491     A.U. after    8 cycles
 SCF Done:  E(RM062X) =  -1267.80214455     A.U. after    7 cycles
 SCF Done:  E(RM062X) =  -1267.80214448     A.U. after    6 cycles
 SCF Done:  E(RM062X) =  -1267.80214444     A.U. after    6 cycles
 SCF Done:  E(RM062X) =  -1267.80214417     A.U. after    6 cycles
 Optimization completed.
    -- Stationary point found.
 Normal termination of Gaussian 09 at Wed Sep  9 12:26:13 2020.

 -------------------------------------------------------------------
 #N Geom=AllCheck Guess=TCheck SCRF=Check GenChk RM062X/def2SVP Freq
 -------------------------------------------------------------------

 Structure from the checkpoint file:  "m062x_sm_2H2O_claisen_PM6_toluene_gd3.chk"
 -------------------
 Title Card Required
 -------------------
 Charge =  0 Multiplicity = 1

                         Standard orientation:
 ---------------------------------------------------------------------
 Center     Atomic      Atomic             Coordinates (Angstroms)
 Number     Number       Type             X           Y           Z
 ---------------------------------------------------------------------
      1          6           0       -2.745485    2.475308    0.604291
      2          6           0       -3.015226    1.210945    0.137698
      3          6           0       -1.963064    0.294580   -0.127090
      4          6           0       -0.615232    0.711872    0.082651
      5          6           0       -0.369149    2.022305    0.576545
      6          6           0       -1.410968    2.884190    0.829275
      7          1           0       -3.565612    3.165089    0.807295
      8          1           0       -4.042706    0.888758   -0.027970
      9          1           0        0.658302    2.336739    0.754552
     10          1           0       -1.206800    3.886118    1.208822
     11          6           0        0.463810   -0.209472   -0.153240
     12          6           0       -2.191319   -1.041184   -0.577653
     13          6           0        0.191317   -1.493257   -0.571853
     14          1           0        0.988517   -2.217600   -0.711194
     15          6           0       -1.146584   -1.902931   -0.786974
     16          1           0       -1.348609   -2.921597   -1.117705
     17          8           0        1.688165    0.302066    0.108245
     18         17           0       -3.818646   -1.593420   -0.860998
     19          6           0        2.941260   -0.337559   -0.221389
     20          6           0        3.167758   -1.586495    0.599794
     21          1           0        4.017646   -2.191575    0.265456
     22          6           0        3.040179   -0.588453   -1.728455
     23          1           0        4.061325   -0.914281   -1.969203
     24          1           0        2.344296   -1.355886   -2.086793
     25          1           0        2.839776    0.354040   -2.257436
     26          6           0        3.983511    0.706483    0.186466
     27          1           0        3.853106    0.958364    1.247211
     28          1           0        4.994213    0.302719    0.040934
     29          1           0        3.868728    1.612928   -0.425079
     30          6           0        2.483687   -1.935258    1.687522
     31          1           0        2.756468   -2.833332    2.245695
     32          1           0        1.624549   -1.361436    2.049638
     33          8           0       -0.590374   -0.853270    2.772116
     34          1           0       -0.880824   -1.306936    1.970387
     35          1           0       -0.703282    0.078136    2.546742
     36          8           0        2.000100    2.637315   -1.626988
     37          1           0        1.188820    2.740595   -2.137761
     38          1           0        1.798961    1.911964   -1.019133
 ---------------------------------------------------------------------

 SCF Done:  E(RM062X) =  -1267.80214417     A.U. after    1 cycles

 The electronic state is 1-A.
 Alpha  occ. eigenvalues -- -102.64670 -19.68389 -19.62086 -19.61716 -10.64134
 Alpha  occ. eigenvalues --  -10.63335 -10.62223 -10.59095 -10.58699 -10.58216
 Alpha  occ. eigenvalues --  -10.57468 -10.57386 -10.57314 -10.57270 -10.57259
 Alpha  occ. eigenvalues --  -10.56240 -10.55392 -10.55128 -10.55114  -9.81666
 Alpha  occ. eigenvalues --   -7.54370  -7.53689  -7.53687  -1.19798  -1.09969
 Alpha  occ. eigenvalues --   -1.09639  -1.00796  -0.96281  -0.93503  -0.91200
 Alpha  occ. eigenvalues --   -0.86003  -0.84977  -0.83901  -0.80988  -0.77986
 Alpha  occ. eigenvalues --   -0.73160  -0.71957  -0.70261  -0.68087  -0.64275
 Alpha  occ. eigenvalues --   -0.61425  -0.59733  -0.59382  -0.58850  -0.57490
 Alpha  occ. eigenvalues --   -0.56482  -0.55203  -0.54772  -0.52128  -0.51497
 Alpha  occ. eigenvalues --   -0.51125  -0.50561  -0.49771  -0.49208  -0.47623
 Alpha  occ. eigenvalues --   -0.46968  -0.46271  -0.45838  -0.45496  -0.45153
 Alpha  occ. eigenvalues --   -0.44510  -0.43814  -0.43248  -0.42022  -0.41677
 Alpha  occ. eigenvalues --   -0.41187  -0.39507  -0.38147  -0.38006  -0.37750
 Alpha  occ. eigenvalues --   -0.37306  -0.33701  -0.32621  -0.31706  -0.26830
 Alpha virt. eigenvalues --   -0.02955  -0.00614   0.04094   0.04943   0.08282
 Alpha virt. eigenvalues --    0.08631   0.10008   0.10993   0.11221   0.11896
 Alpha virt. eigenvalues --    0.12363   0.13896   0.14750   0.15587   0.16152

 Mulliken charges:
               1
     1  C   -0.009334
     2  C   -0.042743
     3  C    0.017047
     4  C   -0.077091
     5  C   -0.070897
     6  C    0.000035
     7  H    0.039055
     8  H    0.026947
     9  H    0.038068
    10  H    0.039362
    11  C    0.247202
    12  C    0.036171
    13  C   -0.123895
    14  H    0.034846
    15  C   -0.020609
    16  H    0.031919
    17  O   -0.384977
    18  Cl  -0.097532
    19  C   -0.096617
    20  C   -0.075912
    21  H    0.042019
    22  C   -0.001272
    23  H    0.057416
    24  H    0.052762
    25  H    0.038528
    26  C    0.018998
    27  H    0.052587
    28  H    0.048942
    29  H    0.057290
    30  C   -0.077969
    31  H    0.059987
    32  H    0.052097
    33  O   -0.318080
    34  H    0.187019
    35  H    0.193110
    36  O   -0.341009
    37  H    0.183622
    38  H    0.182907
 Sum of Mulliken charges =   0.00000

 Dipole moment (field-independent basis, Debye):
    X=              0.3203    Y=             -0.2304    Z=             -1.7222  Tot=              1.7668
 Quadrupole moment (field-independent basis, Debye-Ang):
   XX=           -116.4172   YY=           -115.3042   ZZ=           -130.3774
   XY=            -14.4685   XZ=             -0.5220   YZ=              8.4409

  Exact polarizability: 263.960 -10.948 237.368  -3.360  25.025 150.358
 Approx polarizability: 272.337  -6.810 265.133  -3.861  32.204 170.149

                      1                      2                      3
                      A                      A                      A
 Frequencies --     36.1202                38.3581                47.7492
 Red. masses --      6.8500                 6.1773                 5.0535
 Frc consts  --      0.0053                 0.0054                 0.0068
 IR Inten    --      1.0728                 1.6529                 0.6479

                      4                      5                      6
                      A                      A                      A
 Frequencies --     73.8133                80.8839               102.3220
 Red. masses --      4.3399                 5.9655                 5.0576
 Frc consts  --      0.0139                 0.0230                 0.0312
 IR Inten    --      1.2145                 6.9233                 3.6053

                      7                      8                      9
                      A                      A                      A
 Frequencies --    119.0730               127.4789               132.9115
 Red. masses --      4.2195                 5.0305                 4.3764
 Frc consts  --      0.0352                 0.0482                 0.0455
 IR Inten    --      4.7670                 5.8401                 0.2121

                     10                     11                     12
                      A                      A                      A
 Frequencies --    145.5012               153.3985               167.9436
 Red. masses --      4.0527                 2.7328                 4.5591
 Frc consts  --      0.0506                 0.0379                 0.0758
 IR Inten    --      1.9365                 0.6485                 9.3909

                     13                     14                     15
                      A                      A                      A
 Frequencies --    198.7492               207.5422               223.1677
 Red. masses --      3.8433                 2.9761                 1.4948
 Frc consts  --      0.0894                 0.0755                 0.0439
 IR Inten    --     11.9118                 5.4329                 4.3714

                     16                     17                     18
                      A                      A                      A
 Frequencies --    231.7134               243.2233               264.7711
 Red. masses --      3.4705                 1.1573                 1.1034
 Frc consts  --      0.1098                 0.0403                 0.0456
 IR Inten    --      6.4871                70.0864                95.5200

                     19                     20                     21
                      A                      A                      A
 Frequencies --    275.5997               291.4299               299.7951
 Red. masses --      1.9410                 1.3331                 1.1301
 Frc consts  --      0.0869                 0.0667                 0.0598
 IR Inten    --     54.5685                12.0021               154.8712

                     22                     23                     24
                      A                      A                      A
 Frequencies --    328.5668               341.4337               347.5740
 Red. masses --      1.8026                 1.3930                 1.9290
 Frc consts  --      0.1147                 0.0957                 0.1373
 IR Inten    --     11.1702                34.3230                15.4966

                     25                     26                     27
                      A                      A                      A
 Frequencies --    353.2278               372.9165               386.0456
 Red. masses --      1.1845                 3.1108                 3.0819
 Frc consts  --      0.0871                 0.2549                 0.2706
 IR Inten    --     95.0100                 3.0217                13.1367

                     28                     29                     30
                      A                      A                      A
 Frequencies --    421.2733               428.1318               451.6515
 Red. masses --      4.6790                 2.6776                 2.8966
 Frc consts  --      0.4892                 0.2892                 0.3481
 IR Inten    --      1.7210                25.1947                 6.4719

                     31                     32                     33
                      A                      A                      A
 Frequencies --    486.2700               496.1550               515.0179
 Red. masses --      3.3968                 4.6235                 1.2204
 Frc consts  --      0.4732                 0.6706                 0.1907
 IR Inten    --      1.2497                 7.3642               111.1834

                     34                     35                     36
                      A                      A                      A
 Frequencies --    531.2530               566.4771               606.7979
 Red. masses --      5.5678                 3.6767                 3.9858
 Frc consts  --      0.9258                 0.6951                 0.8647
 IR Inten    --      6.9367                 8.4678                 1.6591

                     37                     38                     39
                      A                      A                      A
 Frequencies --    618.0211               663.9626               670.1844
 Red. masses --      3.1468                 3.6744                 4.4764
 Frc consts  --      0.7081                 0.9544                 1.1846
 IR Inten    --      8.5877                13.3343                17.1894

                     40                     41                     42
                      A                      A                      A
 Frequencies --    700.8538               756.5406               783.1788
 Red. masses --      1.9652                 5.4527                 3.3868
 Frc consts  --      0.5687                 1.8388                 1.2240
 IR Inten    --     23.7561                22.3763                12.2438

                     43                     44                     45
                      A                      A                      A
 Frequencies --    793.1141               807.0086               807.4331
 Red. masses --      1.4736                 4.5148                 3.1486
 Frc consts  --      0.5461                 1.7324                 1.2094
 IR Inten    --     58.9433                 6.6751                 1.1941

                     46                     47                     48
                      A                      A                      A
 Frequencies --    869.1062               901.8881               918.0903
 Red. masses --      1.3619                 1.6312                 2.3563
 Frc consts  --      0.6061                 0.7818                 1.1702
 IR Inten    --     50.5184                 1.0526                29.5271

                     49                     50                     51
                      A                      A                      A
 Frequencies --    939.0605               961.2880               974.8644
 Red. masses --      1.4500                 2.1710                 1.5303
 Frc consts  --      0.7534                 1.1820                 0.8569
 IR Inten    --      1.8895                20.3321                 3.2549

                     52                     53                     54
                      A                      A                      A
 Frequencies --    981.9931              1007.5584              1009.3695
 Red. masses --      2.7022                 1.3623                 1.3354
 Frc consts  --      1.5352                 0.8148                 0.8016
 IR Inten    --     14.6973                 2.1185                14.9652

                     55                     56                     57
                      A                      A                      A
 Frequencies --   1024.0633              1037.7407              1040.9208
 Red. masses --      1.3278                 1.2366                 1.3627
 Frc consts  --      0.8204                 0.7846                 0.8699
 IR Inten    --     11.1213                11.4981                 0.8837

                     58                     59                     60
                      A                      A                      A
 Frequencies --   1049.3751              1065.0016              1100.0759
 Red. masses --      1.1819                 2.2653                 2.0426
 Frc consts  --      0.7668                 1.5138                 1.4564
 IR Inten    --     41.8197                21.5535                59.1141

                     61                     62                     63
                      A                      A                      A
 Frequencies --   1156.0045              1164.4734              1185.9831
 Red. masses --      1.7215                 1.1200                 1.5395
 Frc consts  --      1.3555                 0.8948                 1.2758
 IR Inten    --      1.8300                 4.9855                 1.3593

                     64                     65                     66
                      A                      A                      A
 Frequencies --   1211.7752              1219.0298              1231.2597
 Red. masses --      2.6268                 1.8481                 3.1093
 Frc consts  --      2.2726                 1.6181                 2.7773
 IR Inten    --    170.3104                19.2282                30.6707

                     67                     68                     69
                      A                      A                      A
 Frequencies --   1266.3966              1273.3868              1297.8946
 Red. masses --      1.7869                 2.0930                 2.6580
 Frc consts  --      1.6885                 1.9996                 2.6381
 IR Inten    --     70.0480                94.4826               115.1072

                     70                     71                     72
                      A                      A                      A
 Frequencies --   1310.5480              1377.0939              1379.6024
 Red. masses --      1.4452                 2.6829                 1.6365
 Frc consts  --      1.4624                 2.9976                 1.8351
 IR Inten    --      3.2557                13.4291                24.8505

                     73                     74                     75
                      A                      A                      A
 Frequencies --   1397.7393              1413.3361              1439.4508
 Red. masses --      1.2633                 2.7732                 1.1780
 Frc consts  --      1.4542                 3.2637                 1.4381
 IR Inten    --     39.2162               218.8772                17.7191

                     76                     77                     78
                      A                      A                      A
 Frequencies --   1443.0916              1447.9853              1457.4505
 Red. masses --      6.9015                 1.0532                 1.0532
 Frc consts  --      8.4680                 1.3010                 1.3181
 IR Inten    --     51.2041                 2.8542                 8.7050

                     79                     80                     81
                      A                      A                      A
 Frequencies --   1468.5728              1474.6056              1482.3504
 Red. masses --      2.6275                 1.1033                 1.0861
 Frc consts  --      3.3387                 1.4134                 1.4061
 IR Inten    --     43.5207                 1.9321                 2.4369

                     82                     83                     84
                      A                      A                      A
 Frequencies --   1503.8085              1576.4339              1627.3695
 Red. masses --      3.3015                 4.7590                 1.0808
 Frc consts  --      4.3989                 6.9681                 1.6865
 IR Inten    --    109.8491                39.2355               159.4367

                     85                     86                     87
                      A                      A                      A
 Frequencies --   1634.9636              1670.1765              1683.7241
 Red. masses --      1.0843                 7.9727                 6.5561
 Frc consts  --      1.7077                13.1033                10.9506
 IR Inten    --    102.8134                45.4386               114.0413

                     88                     89                     90
                      A                      A                      A
 Frequencies --   1717.3344              1755.8421              3061.4716
 Red. masses --      7.1752                 5.2813                 1.0353
 Frc consts  --     12.4680                 9.5932                 5.7172
 IR Inten    --      8.9955                 2.3087                10.5837

                     91                     92                     93
                      A                      A                      A
 Frequencies --   3070.3906              3153.4833              3163.2732
 Red. masses --      1.0372                 1.0607                 1.1057
 Frc consts  --      5.7610                 6.2150                 6.5185
 IR Inten    --      9.0593                 6.7939                 1.0154

                     94                     95                     96
                      A                      A                      A
 Frequencies --   3165.9291              3172.0884              3174.7165
 Red. masses --      1.1054                 1.1026                 1.0990
 Frc consts  --      6.5279                 6.5365                 6.5263
 IR Inten    --      6.0659                 1.1471                28.2123

                     97                     98                     99
                      A                      A                      A
 Frequencies --   3182.0019              3212.4748              3224.0809
 Red. masses --      1.1041                 1.0886                 1.0935
 Frc consts  --      6.5865                 6.6188                 6.6971
 IR Inten    --     11.3925                 4.2862                 3.7440

                    100                    101                    102
                      A                      A                      A
 Frequencies --   3228.2982              3238.9375              3241.9150
 Red. masses --      1.0939                 1.0955                 1.0973
 Frc consts  --      6.7167                 6.7710                 6.7947
 IR Inten    --      1.4152                 0.3616                 3.1725

                    103                    104                    105
                      A                      A                      A
 Frequencies --   3260.8568              3274.3204              3826.7941
 Red. masses --      1.1178                 1.0939                 1.0505
 Frc consts  --      7.0030                 6.9101                 9.0636
 IR Inten    --      7.3262                 4.2369               224.6771

                    106                    107                    108
                      A                      A                      A
 Frequencies --   3856.5124              3931.1235              3940.8903
 Red. masses --      1.0471                 1.0773                 1.0800
 Frc consts  --      9.1758                 9.8091                 9.8824
 IR Inten    --     61.1309               145.0171                48.0176

 - Thermochemistry -
 -------------------
 Temperature   298.150 Kelvin.  Pressure   1.00000 Atm.
 Atom     1 has atomic number  6 and mass  12.00000

 Molecular mass:   282.10227 amu.
 Principal axes and moments of inertia in atomic units:
                           1         2         3
     Eigenvalues --  3762.681947398.273588701.72546
           X            0.99955  -0.02667  -0.01364
           Y            0.02658   0.99962  -0.00732
           Z            0.01383   0.00695   0.99988
 This molecule is an asymmetric top.
 Rotational symmetry number  1.
 Warning -- assumption of classical behavior for rotation
           may cause significant error
 Rotational temperatures (Kelvin)      0.02302     0.01171     0.00995
 Rotational constants (GHZ):           0.47964     0.24394     0.20740
 Zero-point vibrational energy     814790.1 (Joules/Mol)
                                  194.73951 (Kcal/Mol)
 Warning -- explicit consideration of  37 degrees of freedom as
           vibrations may cause significant error
 Vibrational temperatures:     51.97    55.19    68.70   106.20   116.37
          (Kelvin)            147.22   171.32   183.41   191.23   209.34
                              220.71   241.63   285.96   298.61   321.09
                              333.38   349.94   380.95   396.53   419.30
                              431.34   472.73   491.25   500.08   508.22
                              536.54   555.43   606.12   615.99   649.82
                              699.63   713.86   740.99   764.35   815.03
                              873.05   889.19   955.29   964.24  1008.37
                             1088.49  1126.82  1141.11  1161.10  1161.71
                             1250.45  1297.61  1320.93  1351.10  1383.08
                             1402.61  1412.87  1449.65  1452.26  1473.40
                             1493.08  1497.65  1509.81  1532.30  1582.76
                             1663.23  1675.42  1706.36  1743.47  1753.91
                             1771.51  1822.06  1832.12  1867.38  1885.58
                             1981.33  1984.94  2011.03  2033.47  2071.05
                             2076.28  2083.33  2096.94  2112.95  2121.63
                             2132.77  2163.64  2268.13  2341.42  2352.35
                             2403.01  2422.50  2470.86  2526.26  4404.77
                             4417.60  4537.15  4551.24  4555.06  4563.92
                             4567.70  4578.19  4622.03  4638.73  4644.80
                             4660.10  4664.39  4691.64  4711.01  5505.90
                             5548.65  5656.00  5670.06

 Zero-point correction=                           0.310337 (Hartree/Particle)
 Thermal correction to Energy=                    0.332333
 Thermal correction to Enthalpy=                  0.333277
 Thermal correction to Gibbs Free Energy=         0.260145
 Sum of electronic and zero-point Energies=          -1267.491807
 Sum of electronic and thermal Energies=             -1267.469811
 Sum of electronic and thermal Enthalpies=           -1267.468867
 Sum of electronic and thermal Free Energies=        -1267.542000

                     E (Thermal)             CV                S
                      KCal/Mol        Cal/Mol-Kelvin    Cal/Mol-Kelvin
 Total                  208.542             81.851            153.921
 Electronic               0.000              0.000              0.000
 Translational            0.889              2.981             42.809
 Rotational               0.889              2.981             33.848
 Vibrational            206.765             75.889             77.263
 Vibration     1          0.594              1.982              5.461
 Vibration     2          0.594              1.982              5.342
 Vibration     3          0.595              1.978              4.909
 Vibration     4          0.599              1.966              4.049
 Vibration     5          0.600              1.962              3.869
 Vibration     6          0.604              1.947              3.410
 Vibration     7          0.609              1.933              3.115
 Vibration     8          0.611              1.926              2.984
 Vibration     9          0.613              1.920              2.903
 Vibration    10          0.617              1.908              2.730
 Vibration    11          0.619              1.899              2.630
 Vibration    12          0.625              1.882              2.458
 Vibration    13          0.637              1.842              2.145
 Vibration    14          0.641              1.829              2.065
 Vibration    15          0.649              1.806              1.933
 Vibration    16          0.653              1.792              1.866
 Vibration    17          0.659              1.774              1.779
 Vibration    18          0.671              1.738              1.630
 Vibration    19          0.677              1.718              1.561
 Vibration    20          0.687              1.690              1.466
 Vibration    21          0.692              1.674              1.418
 Vibration    22          0.712              1.618              1.267
 Vibration    23          0.721              1.593              1.205
 Vibration    24          0.725              1.580              1.177
 Vibration    25          0.729              1.569              1.152
 Vibration    26          0.744              1.528              1.068
 Vibration    27          0.755              1.500              1.015
 Vibration    28          0.784              1.424              0.888
 Vibration    29          0.790              1.409              0.865
 Vibration    30          0.810              1.357              0.791
 Vibration    31          0.842              1.280              0.693
 Vibration    32          0.852              1.259              0.668
 Vibration    33          0.870              1.217              0.622
 Vibration    34          0.886              1.181              0.584
 Vibration    35          0.922              1.104              0.511
 Vibration    36          0.966              1.017              0.438
 Vibration    37          0.978              0.994              0.420

 Normal termination of Gaussian 09 at Wed Sep  9 13:06:12 2020.
