 Gaussian 09, Revision D.01,
 Gaussian 09:  ES64L-G09RevD.01 24-Apr-2013

 ----------------------------------------------------------------------
 # opt=(calcfc,ts,noeigentest) b3lyp/6-31+g(d,p) scrf=(cpcm,solvent=tol
 uene) geom=connectivity empiricaldispersion=gd3
 ----------------------------------------------------------------------

 -------------------
 Title Card Required
 -------------------
 Symbolic Z-matrix:
 Charge =  0 Multiplicity = 1

 SCF Done:  E(RB3LYP) =  -1116.06124542     A.U. after   16 cycles

  Exact polarizability:   0.000   0.000   0.000   0.000   0.000   0.000
 Approx polarizability: 440.153 -31.448 387.571 -10.400  -3.790 212.029

 SCF Done:  E(RB3LYP) =  -1116.07299619     A.U. after   14 cycles
 SCF Done:  E(RB3LYP) =  -1116.07850224     A.U. after   14 cycles
 SCF Done:  E(RB3LYP) =  -1116.08018725     A.U. after   13 cycles
 SCF Done:  E(RB3LYP) =  -1116.08037236     A.U. after   13 cycles
 SCF Done:  E(RB3LYP) =  -1116.08035632     A.U. after   13 cycles
 SCF Done:  E(RB3LYP) =  -1116.08040232     A.U. after   12 cycles
 SCF Done:  E(RB3LYP) =  -1116.08040629     A.U. after   11 cycles
 SCF Done:  E(RB3LYP) =  -1116.08040720     A.U. after   10 cycles
 SCF Done:  E(RB3LYP) =  -1116.08040718     A.U. after   10 cycles
 SCF Done:  E(RB3LYP) =  -1116.08040758     A.U. after   10 cycles
 SCF Done:  E(RB3LYP) =  -1116.08040700     A.U. after   10 cycles
 SCF Done:  E(RB3LYP) =  -1116.08040789     A.U. after   10 cycles
 Optimization completed.
    -- Stationary point found.

                         Standard orientation:
 ---------------------------------------------------------------------
 Center     Atomic      Atomic             Coordinates (Angstroms)
 Number     Number       Type             X           Y           Z
 ---------------------------------------------------------------------
      1          6           0       -2.263100    2.714589    0.363311
      2          6           0       -2.607527    1.374248    0.348988
      3          6           0       -1.684160    0.390511   -0.087784
      4          6           0       -0.380928    0.811052   -0.500799
      5          6           0       -0.065989    2.186393   -0.492307
      6          6           0       -0.984932    3.128896   -0.065047
      7          1           0       -2.987223    3.450876    0.699711
      8          1           0       -3.597204    1.068443    0.668033
      9          1           0        0.921918    2.479051   -0.830811
     10          1           0       -0.725193    4.183323   -0.061097
     11          6           0        0.611539   -0.162319   -0.977305
     12          6           0       -1.990511   -1.014741   -0.151556
     13          6           0        0.235343   -1.538313   -0.951866
     14          1           0        0.896511   -2.251232   -1.428801
     15          6           0       -1.081085   -1.937565   -0.593503
     16          1           0       -1.356623   -2.985520   -0.649076
     17          8           0        1.789984    0.197328   -1.313044
     18         17           0       -3.595342   -1.581440    0.328367
     19          6           0        3.187130   -0.155402    0.462782
     20          6           0        2.773340   -1.489808    0.583458
     21          1           0        3.365476   -2.236158    0.058136
     22          6           0        4.458834    0.167524   -0.259177
     23          1           0        4.834632   -0.679601   -0.837389
     24          1           0        4.290098    1.010118   -0.936985
     25          1           0        5.230840    0.476045    0.459392
     26          6           0        2.623560    0.946067    1.311677
     27          1           0        1.562441    0.822542    1.530382
     28          1           0        3.164308    0.961562    2.268382
     29          1           0        2.765524    1.916322    0.831824
     30          6           0        1.544688   -1.881627    1.076466
     31          1           0        1.272970   -2.930733    1.102212
     32          1           0        0.905255   -1.216216    1.644171
 ---------------------------------------------------------------------

 The electronic state is 1-A.
 Alpha  occ. eigenvalues -- -101.55747 -19.13079 -10.25608 -10.25188 -10.25170
 Alpha  occ. eigenvalues --  -10.22572 -10.21990 -10.20871 -10.20667 -10.20564
 Alpha  occ. eigenvalues --  -10.20284 -10.20225 -10.20121 -10.20019 -10.19832
 Alpha  occ. eigenvalues --  -10.19477 -10.19338  -9.47219  -7.23611  -7.22669
 Alpha  occ. eigenvalues --   -7.22640  -1.00966  -0.89659  -0.85619  -0.84155
 Alpha  occ. eigenvalues --   -0.81514  -0.76378  -0.76110  -0.75193  -0.71058
 Alpha  occ. eigenvalues --   -0.70143  -0.64081  -0.63205  -0.62629  -0.57719
 Alpha  occ. eigenvalues --   -0.54034  -0.52102  -0.51735  -0.49710  -0.48971
 Alpha  occ. eigenvalues --   -0.46873  -0.46331  -0.45982  -0.44082  -0.43233
 Alpha  occ. eigenvalues --   -0.42611  -0.41686  -0.41545  -0.40984  -0.39948
 Alpha  occ. eigenvalues --   -0.39114  -0.39046  -0.37529  -0.37495  -0.36412
 Alpha  occ. eigenvalues --   -0.36044  -0.35822  -0.34762  -0.31858  -0.30575
 Alpha  occ. eigenvalues --   -0.29537  -0.26824  -0.25753  -0.24785  -0.20634
 Alpha virt. eigenvalues --   -0.09146  -0.04536  -0.02512  -0.00016   0.00402
 Alpha virt. eigenvalues --    0.01026   0.01429   0.01802   0.02408   0.02794
 Alpha virt. eigenvalues --    0.03085   0.03363   0.04158   0.04634   0.04916

 Mulliken charges:
               1
     1  C   -0.451964
     2  C   -0.370377
     3  C    0.622069
     4  C    0.365077
     5  C   -0.448724
     6  C   -0.265419
     7  H    0.137589
     8  H    0.147832
     9  H    0.146089
    10  H    0.135827
    11  C   -0.236182
    12  C   -0.088148
    13  C    0.154897
    14  H    0.156825
    15  C   -0.318131
    16  H    0.146468
    17  O   -0.493170
    18  Cl   0.235187
    19  C    0.500783
    20  C   -0.012346
    21  H    0.128514
    22  C   -0.497346
    23  H    0.153909
    24  H    0.186110
    25  H    0.167072
    26  C   -0.646454
    27  H    0.160244
    28  H    0.173866
    29  H    0.166878
    30  C   -0.395782
    31  H    0.169255
    32  H    0.169551
 Sum of Mulliken charges =   0.00000

 Dipole moment (field-independent basis, Debye):
    X=              3.1626    Y=             -0.1694    Z=              2.6296  Tot=              4.1166
 Quadrupole moment (field-independent basis, Debye-Ang):
   XX=           -103.6514   YY=            -96.8417   ZZ=           -114.2837
   XY=             -4.8144   XZ=              3.2322   YZ=              3.1581

 Normal termination of Gaussian 09 at Thu Aug 27 19:15:30 2020.
