 Gaussian 09, Revision D.01,
 Gaussian 09:  ES64L-G09RevD.01 24-Apr-2013

 ----------------------------------------------------------------------
 # opt freq b3lyp/6-31+g(d,p) scrf=(cpcm,solvent=toluene) geom=connecti
 vity empiricaldispersion=gd3
 ----------------------------------------------------------------------

 -------------------
 Title Card Required
 -------------------
 Symbolic Z-matrix:
 Charge =  0 Multiplicity = 1

 SCF Done:  E(RB3LYP) =  -1116.10686507     A.U. after   15 cycles
 SCF Done:  E(RB3LYP) =  -1116.11192247     A.U. after   13 cycles
 SCF Done:  E(RB3LYP) =  -1116.11381791     A.U. after   13 cycles
 SCF Done:  E(RB3LYP) =  -1116.11432082     A.U. after   14 cycles
 SCF Done:  E(RB3LYP) =  -1116.11541563     A.U. after   13 cycles
 SCF Done:  E(RB3LYP) =  -1116.11565469     A.U. after   12 cycles
 SCF Done:  E(RB3LYP) =  -1116.11580171     A.U. after   13 cycles
 SCF Done:  E(RB3LYP) =  -1116.11589166     A.U. after   12 cycles
 SCF Done:  E(RB3LYP) =  -1116.11600739     A.U. after   12 cycles
 SCF Done:  E(RB3LYP) =  -1116.11603021     A.U. after   11 cycles
 SCF Done:  E(RB3LYP) =  -1116.11603376     A.U. after   11 cycles
 SCF Done:  E(RB3LYP) =  -1116.11603613     A.U. after   11 cycles
 SCF Done:  E(RB3LYP) =  -1116.11603701     A.U. after   10 cycles
 SCF Done:  E(RB3LYP) =  -1116.11603711     A.U. after    9 cycles
 SCF Done:  E(RB3LYP) =  -1116.11603705     A.U. after    9 cycles
 SCF Done:  E(RB3LYP) =  -1116.11603702     A.U. after    9 cycles
 SCF Done:  E(RB3LYP) =  -1116.11603697     A.U. after    9 cycles
 SCF Done:  E(RB3LYP) =  -1116.11603693     A.U. after    9 cycles
 SCF Done:  E(RB3LYP) =  -1116.11603688     A.U. after    9 cycles
 Optimization completed.
    -- Stationary point found.
 Normal termination of Gaussian 09 at Thu Aug 27 18:30:06 2020.

 ----------------------------------------------------------------------
 #N Geom=AllCheck Guess=TCheck SCRF=Check GenChk RB3LYP/6-31+G(d,p) Fre
 q
 ----------------------------------------------------------------------

 Structure from the checkpoint file:  "b3lyp_pr_claisen_PM6_toluene.chk"
 -------------------
 Title Card Required
 -------------------
 Charge =  0 Multiplicity = 1

                         Standard orientation:
 ---------------------------------------------------------------------
 Center     Atomic      Atomic             Coordinates (Angstroms)
 Number     Number       Type             X           Y           Z
 ---------------------------------------------------------------------
      1          6           0        4.345889   -0.301484    0.368060
      2          6           0        3.374908    0.683782    0.189434
      3          6           0        2.034028    0.335756   -0.039595
      4          6           0        1.690528   -1.041375   -0.090911
      5          6           0        2.679735   -2.019308    0.084940
      6          6           0        4.003575   -1.657960    0.318081
      7          1           0        5.375748   -0.006870    0.546407
      8          1           0        3.659544    1.728291    0.227408
      9          1           0        2.382601   -3.061620    0.035852
     10          1           0        4.762576   -2.420984    0.458857
     11          6           0        0.292930   -1.471172   -0.343809
     12          6           0        0.968139    1.328477   -0.236014
     13          6           0       -0.803006   -0.416238   -0.361540
     14          6           0       -0.321331    1.001445   -0.397754
     15          1           0       -1.070060    1.775384   -0.530119
     16          8           0       -0.003968   -2.653644   -0.504573
     17         17           0        1.419095    3.041313   -0.257631
     18          6           0       -4.126485   -0.015551    0.215577
     19          6           0       -2.971522    0.226433    0.861000
     20          1           0       -2.885676    1.158685    1.417876
     21          6           0       -5.278269    0.958621    0.278495
     22          1           0       -6.173141    0.474840    0.691928
     23          1           0       -5.045999    1.833004    0.893561
     24          1           0       -5.548446    1.307013   -0.727267
     25          6           0       -4.388984   -1.244939   -0.619928
     26          1           0       -3.548978   -1.941770   -0.648091
     27          1           0       -5.267322   -1.784152   -0.241927
     28          1           0       -4.621831   -0.956788   -1.653505
     29          6           0       -1.751859   -0.659932    0.868736
     30          1           0       -1.173606   -0.487555    1.783350
     31          1           0       -2.020340   -1.719778    0.850519
     32          1           0       -1.407592   -0.610203   -1.257165
 ---------------------------------------------------------------------

 SCF Done:  E(RB3LYP) =  -1116.11603688     A.U. after    1 cycles

 The electronic state is 1-A.
 Alpha  occ. eigenvalues -- -101.56284 -19.15413 -10.29029 -10.26820 -10.23669
 Alpha  occ. eigenvalues --  -10.22036 -10.21969 -10.21765 -10.21739 -10.21391
 Alpha  occ. eigenvalues --  -10.21284 -10.21193 -10.20517 -10.20501 -10.18741
 Alpha  occ. eigenvalues --  -10.18602 -10.18554  -9.47768  -7.24169  -7.23208
 Alpha  occ. eigenvalues --   -7.23185  -1.05120  -0.90647  -0.86851  -0.83972
 Alpha  occ. eigenvalues --   -0.81407  -0.78006  -0.77359  -0.74224  -0.70537
 Alpha  occ. eigenvalues --   -0.69750  -0.65505  -0.64184  -0.62237  -0.58823
 Alpha  occ. eigenvalues --   -0.53974  -0.53098  -0.51463  -0.50591  -0.48446
 Alpha  occ. eigenvalues --   -0.46721  -0.45706  -0.45380  -0.44609  -0.44295
 Alpha  occ. eigenvalues --   -0.43758  -0.43005  -0.42120  -0.41149  -0.39632
 Alpha  occ. eigenvalues --   -0.38964  -0.38727  -0.38145  -0.37442  -0.37256
 Alpha  occ. eigenvalues --   -0.36154  -0.35813  -0.35295  -0.33560  -0.32392
 Alpha  occ. eigenvalues --   -0.29860  -0.27469  -0.26854  -0.24905  -0.23848
 Alpha virt. eigenvalues --   -0.08524  -0.05110  -0.00355  -0.00043   0.00307
 Alpha virt. eigenvalues --    0.01193   0.01507   0.01904   0.02122   0.02646
 Alpha virt. eigenvalues --    0.02944   0.03339   0.04127   0.04676   0.05026

 Mulliken charges:
               1
     1  C   -0.469899
     2  C   -0.549529
     3  C    0.278201
     4  C    0.308731
     5  C   -0.160819
     6  C   -0.178013
     7  H    0.146616
     8  H    0.155286
     9  H    0.164971
    10  H    0.145910
    11  C   -0.078961
    12  C   -0.261117
    13  C    0.423662
    14  C   -0.072555
    15  H    0.160361
    16  O   -0.471323
    17  Cl   0.264818
    18  C    0.414458
    19  C    0.139411
    20  H    0.116922
    21  C   -0.575709
    22  H    0.157117
    23  H    0.150272
    24  H    0.155923
    25  C   -0.620116
    26  H    0.150371
    27  H    0.160725
    28  H    0.161152
    29  C   -0.731477
    30  H    0.156376
    31  H    0.172315
    32  H    0.185921
 Sum of Mulliken charges =   0.00000

 Dipole moment (field-independent basis, Debye):
    X=              0.0844    Y=              1.1518    Z=              0.5526  Tot=              1.2803
 Quadrupole moment (field-independent basis, Debye-Ang):
   XX=            -87.1897   YY=           -118.8045   ZZ=           -111.0286
   XY=             -4.8647   XZ=              4.1521   YZ=             -1.5298

  Exact polarizability: 323.725  -0.316 237.603  24.120   3.944 144.072
 Approx polarizability: 387.262  11.531 315.798  38.791   7.098 189.388

                      1                      2                      3
                      A                      A                      A
 Frequencies --     14.4201                32.3214                45.4125
 Red. masses --      5.1670                 3.6921                 3.6922
 Frc consts  --      0.0006                 0.0023                 0.0045
 IR Inten    --      2.0635                 0.2484                 0.9018

                      4                      5                      6
                      A                      A                      A
 Frequencies --     79.6553               106.5662               110.8863
 Red. masses --      3.2109                 5.2727                 4.2344
 Frc consts  --      0.0120                 0.0353                 0.0307
 IR Inten    --      0.1555                 0.3144                 1.5956

                      7                      8                      9
                      A                      A                      A
 Frequencies --    137.5796               171.3111               192.7909
 Red. masses --      1.0459                 3.1395                 1.4705
 Frc consts  --      0.0117                 0.0543                 0.0322
 IR Inten    --      0.5181                 2.4005                 1.7693

                     10                     11                     12
                      A                      A                      A
 Frequencies --    207.9551               225.6986               290.7222
 Red. masses --      3.9276                 7.7727                 3.0211
 Frc consts  --      0.1001                 0.2333                 0.1504
 IR Inten    --      3.7980                 1.4296                 0.5832

                     13                     14                     15
                      A                      A                      A
 Frequencies --    318.5076               334.6597               362.5786
 Red. masses --      3.2212                 6.2464                10.8444
 Frc consts  --      0.1925                 0.4122                 0.8400
 IR Inten    --      5.2073                10.0406                 0.4396

                     16                     17                     18
                      A                      A                      A
 Frequencies --    398.8277               406.2937               422.9092
 Red. masses --      3.3535                 2.7865                 3.0725
 Frc consts  --      0.3143                 0.2710                 0.3238
 IR Inten    --      4.8626                 3.1989                 0.9862

                     19                     20                     21
                      A                      A                      A
 Frequencies --    448.1043               471.4939               488.3418
 Red. masses --      3.3248                 4.2056                 2.9323
 Frc consts  --      0.3933                 0.5508                 0.4120
 IR Inten    --      6.4064                 1.3353                 0.9256

                     22                     23                     24
                      A                      A                      A
 Frequencies --    532.6050               552.2986               594.1213
 Red. masses --      5.4178                 3.2496                 3.5607
 Frc consts  --      0.9055                 0.5840                 0.7405
 IR Inten    --     12.8097                 9.6643                 3.6127

                     25                     26                     27
                      A                      A                      A
 Frequencies --    624.0060               637.0865               695.2065
 Red. masses --      3.4894                 6.2943                 4.1077
 Frc consts  --      0.8005                 1.5052                 1.1697
 IR Inten    --      3.5579                28.7901                13.4858

                     28                     29                     30
                      A                      A                      A
 Frequencies --    718.9608               761.3393               776.9515
 Red. masses --      5.2344                 4.1508                 3.1574
 Frc consts  --      1.5941                 1.4176                 1.1230
 IR Inten    --     12.2562                 8.0893                 8.2585

                     31                     32                     33
                      A                      A                      A
 Frequencies --    783.3538               819.5075               847.9919
 Red. masses --      1.4826                 3.4793                 1.6988
 Frc consts  --      0.5360                 1.3767                 0.7197
 IR Inten    --     64.7973                 8.6970                21.3082

                     34                     35                     36
                      A                      A                      A
 Frequencies --    877.4200               898.9652               904.3746
 Red. masses --      1.3678                 2.0291                 1.6365
 Frc consts  --      0.6204                 0.9662                 0.7886
 IR Inten    --     36.1574                18.8054                13.5444

                     37                     38                     39
                      A                      A                      A
 Frequencies --    936.5823               965.9570               977.1820
 Red. masses --      4.6675                 1.4783                 2.0296
 Frc consts  --      2.4123                 0.8127                 1.1418
 IR Inten    --     73.6093                 0.3644                 2.0287

                     40                     41                     42
                      A                      A                      A
 Frequencies --    989.6030              1008.8348              1012.9000
 Red. masses --      1.4732                 1.2479                 1.3255
 Frc consts  --      0.8500                 0.7483                 0.8013
 IR Inten    --      2.5301                 5.4361                 0.0803

                     43                     44                     45
                      A                      A                      A
 Frequencies --   1032.5777              1043.9021              1073.9947
 Red. masses --      3.7260                 2.7287                 2.0729
 Frc consts  --      2.3406                 1.7520                 1.4087
 IR Inten    --     81.0848                 1.7727                 1.3335

                     46                     47                     48
                      A                      A                      A
 Frequencies --   1099.2958              1101.5452              1131.9796
 Red. masses --      2.1004                 1.9010                 1.8996
 Frc consts  --      1.4955                 1.3590                 1.4342
 IR Inten    --      5.9899                 5.4214                10.2041

                     49                     50                     51
                      A                      A                      A
 Frequencies --   1145.7247              1165.7176              1195.4142
 Red. masses --      1.7506                 1.3917                 1.1983
 Frc consts  --      1.3540                 1.1143                 1.0089
 IR Inten    --      5.9537                15.6747                 6.8757

                     52                     53                     54
                      A                      A                      A
 Frequencies --   1208.3078              1244.6425              1266.1124
 Red. masses --      1.7432                 1.9404                 2.2514
 Frc consts  --      1.4995                 1.7711                 2.1264
 IR Inten    --     17.1495                 1.4304                63.0397

                     55                     56                     57
                      A                      A                      A
 Frequencies --   1271.5073              1312.8095              1326.8069
 Red. masses --      1.3152                 1.8645                 1.2585
 Frc consts  --      1.2528                 1.8933                 1.3053
 IR Inten    --      4.2787               103.0652                 2.5584

                     58                     59                     60
                      A                      A                      A
 Frequencies --   1348.6288              1363.2560              1368.3092
 Red. masses --      3.6890                 2.3761                 1.6867
 Frc consts  --      3.9532                 2.6018                 1.8606
 IR Inten    --     32.6532                55.5086                27.1336

                     61                     62                     63
                      A                      A                      A
 Frequencies --   1384.9649              1416.1292              1422.6204
 Red. masses --      1.3748                 1.3618                 1.2456
 Frc consts  --      1.5537                 1.6091                 1.4852
 IR Inten    --      3.7588                 8.6089                 5.7500

                     64                     65                     66
                      A                      A                      A
 Frequencies --   1470.7511              1480.4095              1480.6101
 Red. masses --      1.0467                 1.6826                 1.2896
 Frc consts  --      1.3339                 2.1727                 1.6656
 IR Inten    --      0.3349                24.3536                 7.4961

                     67                     68                     69
                      A                      A                      A
 Frequencies --   1489.8131              1492.8143              1508.6694
 Red. masses --      1.0579                 1.0746                 2.2273
 Frc consts  --      1.3835                 1.4110                 2.9869
 IR Inten    --     20.1321                11.9332                 9.4099

                     70                     71                     72
                      A                      A                      A
 Frequencies --   1510.1111              1604.0747              1638.4432
 Red. masses --      1.1609                 5.6545                 5.6222
 Frc consts  --      1.5597                 8.5722                 8.8923
 IR Inten    --     13.9691                 1.2179               103.4843

                     73                     74                     75
                      A                      A                      A
 Frequencies --   1681.6166              1718.6656              1725.9509
 Red. masses --      8.2371                10.8198                 6.7422
 Frc consts  --     13.7240                18.8300                11.8334
 IR Inten    --     56.3883               237.9190                72.8166

                     76                     77                     78
                      A                      A                      A
 Frequencies --   3015.3832              3023.5574              3041.1930
 Red. masses --      1.0381                 1.0406                 1.0802
 Frc consts  --      5.5615                 5.6049                 5.8865
 IR Inten    --     41.5754                68.7183                 3.5688

                     79                     80                     81
                      A                      A                      A
 Frequencies --   3055.5446              3064.3280              3069.0260
 Red. masses --      1.0644                 1.1000                 1.0994
 Frc consts  --      5.8550                 6.0857                 6.1013
 IR Inten    --     26.7340                13.2023                38.2154

                     82                     83                     84
                      A                      A                      A
 Frequencies --   3108.6073              3112.6227              3135.5609
 Red. masses --      1.1021                 1.1006                 1.0971
 Frc consts  --      6.2749                 6.2823                 6.3553
 IR Inten    --     14.5502                29.5446                24.9790

                     85                     86                     87
                      A                      A                      A
 Frequencies --   3149.2425              3191.5297              3205.1701
 Red. masses --      1.0893                 1.0873                 1.0915
 Frc consts  --      6.3654                 6.5253                 6.6063
 IR Inten    --     32.2787                 4.1554                12.1584

                     88                     89                     90
                      A                      A                      A
 Frequencies --   3207.8283              3217.4375              3228.2860
 Red. masses --      1.0916                 1.0948                 1.0931
 Frc consts  --      6.6182                 6.6774                 6.7121
 IR Inten    --      1.8001                13.2830                 5.8112

 - Thermochemistry -
 -------------------
 Temperature   298.150 Kelvin.  Pressure   1.00000 Atm.
 Atom     1 has atomic number  6 and mass  12.00000

 Molecular mass:   246.08114 amu.
 Principal axes and moments of inertia in atomic units:
                           1         2         3
     Eigenvalues --  2599.871277236.247669458.47645
           X            0.99993  -0.01154   0.00363
           Y            0.01152   0.99992   0.00517
           Z           -0.00369  -0.00513   0.99998
 This molecule is an asymmetric top.
 Rotational symmetry number  1.
 Warning -- assumption of classical behavior for rotation
           may cause significant error
 Rotational temperatures (Kelvin)      0.03331     0.01197     0.00916
 Rotational constants (GHZ):           0.69417     0.24940     0.19081
 Zero-point vibrational energy     680279.1 (Joules/Mol)
                                  162.59060 (Kcal/Mol)
 Warning -- explicit consideration of  24 degrees of freedom as
           vibrations may cause significant error
 Vibrational temperatures:     20.75    46.50    65.34   114.61   153.32
          (Kelvin)            159.54   197.95   246.48   277.38   299.20
                              324.73   418.28   458.26   481.50   521.67
                              573.82   584.57   608.47   644.72   678.37
                              702.61   766.30   794.63   854.81   897.80
                              916.62  1000.25  1034.42  1095.40  1117.86
                             1127.07  1179.09  1220.07  1262.41  1293.41
                             1301.19  1347.53  1389.79  1405.95  1423.82
                             1451.49  1457.34  1485.65  1501.94  1545.24
                             1581.64  1584.88  1628.66  1648.44  1677.21
                             1719.93  1738.48  1790.76  1821.65  1829.41
                             1888.84  1908.98  1940.37  1961.42  1968.69
                             1992.65  2037.49  2046.83  2116.08  2129.98
                             2130.27  2143.51  2147.82  2170.64  2172.71
                             2307.90  2357.35  2419.47  2472.77  2483.26
                             4338.46  4350.22  4375.59  4396.24  4408.88
                             4415.64  4472.59  4478.36  4511.37  4531.05
                             4591.89  4611.52  4615.34  4629.17  4644.78

 Zero-point correction=                           0.259105 (Hartree/Particle)
 Thermal correction to Energy=                    0.275146
 Thermal correction to Enthalpy=                  0.276091
 Thermal correction to Gibbs Free Energy=         0.213365
 Sum of electronic and zero-point Energies=          -1115.856932
 Sum of electronic and thermal Energies=             -1115.840890
 Sum of electronic and thermal Enthalpies=           -1115.839946
 Sum of electronic and thermal Free Energies=        -1115.902672

                     E (Thermal)             CV                S
                      KCal/Mol        Cal/Mol-Kelvin    Cal/Mol-Kelvin
 Total                  172.657             60.815            132.017
 Electronic               0.000              0.000              0.000
 Translational            0.889              2.981             42.402
 Rotational               0.889              2.981             33.542
 Vibrational            170.880             54.854             56.073
 Vibration     1          0.593              1.986              7.284
 Vibration     2          0.594              1.983              5.682
 Vibration     3          0.595              1.979              5.008
 Vibration     4          0.600              1.963              3.899
 Vibration     5          0.605              1.944              3.331
 Vibration     6          0.607              1.940              3.253
 Vibration     7          0.614              1.916              2.837
 Vibration     8          0.626              1.878              2.421
 Vibration     9          0.635              1.850              2.201
 Vibration    10          0.641              1.829              2.062
 Vibration    11          0.650              1.802              1.913
 Vibration    12          0.687              1.691              1.470
 Vibration    13          0.705              1.638              1.318
 Vibration    14          0.716              1.606              1.237
 Vibration    15          0.736              1.549              1.111
 Vibration    16          0.765              1.473              0.967
 Vibration    17          0.771              1.457              0.940
 Vibration    18          0.785              1.420              0.882
 Vibration    19          0.807              1.365              0.802
 Vibration    20          0.828              1.313              0.733
 Vibration    21          0.844              1.276              0.688
 Vibration    22          0.888              1.178              0.581
 Vibration    23          0.908              1.135              0.539
 Vibration    24          0.952              1.044              0.460

 Optimization completed.
    -- Stationary point found.
 Normal termination of Gaussian 09 at Thu Aug 27 19:15:49 2020.
