 Gaussian 09, Revision D.01,
 Gaussian 09:  ES64L-G09RevD.01 24-Apr-2013

 ----------------------------------------------------------------------
 # opt freq b3lyp/6-31+g(d,p) scrf=(cpcm,solvent=toluene) geom=connecti
 vity empiricaldispersion=gd3
 ----------------------------------------------------------------------

 -------------------
 Title Card Required
 -------------------
 Symbolic Z-matrix:
 Charge =  0 Multiplicity = 1

 SCF Done:  E(RB3LYP) =  -1116.10606595     A.U. after   15 cycles
 SCF Done:  E(RB3LYP) =  -1116.10857663     A.U. after   15 cycles
 SCF Done:  E(RB3LYP) =  -1116.10731884     A.U. after   15 cycles
 SCF Done:  E(RB3LYP) =  -1116.11000567     A.U. after   12 cycles
 SCF Done:  E(RB3LYP) =  -1116.11106434     A.U. after   13 cycles
 SCF Done:  E(RB3LYP) =  -1116.11209231     A.U. after   12 cycles
 SCF Done:  E(RB3LYP) =  -1116.11243240     A.U. after   12 cycles
 SCF Done:  E(RB3LYP) =  -1116.11259578     A.U. after   12 cycles
 SCF Done:  E(RB3LYP) =  -1116.11271244     A.U. after   12 cycles
 SCF Done:  E(RB3LYP) =  -1116.11280811     A.U. after   12 cycles
 SCF Done:  E(RB3LYP) =  -1116.11284323     A.U. after   12 cycles
 SCF Done:  E(RB3LYP) =  -1116.11285426     A.U. after   11 cycles
 SCF Done:  E(RB3LYP) =  -1116.11285488     A.U. after   10 cycles
 SCF Done:  E(RB3LYP) =  -1116.11285513     A.U. after   10 cycles
 SCF Done:  E(RB3LYP) =  -1116.11285515     A.U. after    8 cycles
 Optimization completed.
    -- Stationary point found.
 Normal termination of Gaussian 09 at Thu Aug 27 18:31:34 2020.

 ----------------------------------------------------------------------
 #N Geom=AllCheck Guess=TCheck SCRF=Check GenChk RB3LYP/6-31+G(d,p) Fre
 q
 ----------------------------------------------------------------------

 Structure from the checkpoint file:  "b3lyp_sm_claisen_PM6_toluene.chk"
 -------------------
 Title Card Required
 -------------------
 Charge =  0 Multiplicity = 1

                         Standard orientation:
 ---------------------------------------------------------------------
 Center     Atomic      Atomic             Coordinates (Angstroms)
 Number     Number       Type             X           Y           Z
 ---------------------------------------------------------------------
      1          6           0       -2.831208    2.516085    0.162123
      2          6           0       -3.021601    1.153349    0.069296
      3          6           0       -1.915957    0.259634    0.040165
      4          6           0       -0.589107    0.807261    0.112206
      5          6           0       -0.429179    2.216127    0.202827
      6          6           0       -1.524126    3.054241    0.227362
      7          1           0       -3.690630    3.179614    0.183320
      8          1           0       -4.025617    0.748597    0.017600
      9          1           0        0.575902    2.617543    0.252573
     10          1           0       -1.384227    4.128905    0.295772
     11          6           0        0.545515   -0.071347    0.091816
     12          6           0       -2.045118   -1.157026   -0.064115
     13          6           0        0.360759   -1.437702    0.002362
     14          1           0        1.206169   -2.110970    0.016621
     15          6           0       -0.942989   -1.977589   -0.085335
     16          1           0       -1.068870   -3.052199   -0.158785
     17          8           0        1.752559    0.556444    0.216241
     18         17           0       -3.647368   -1.897838   -0.167140
     19          6           0        2.998102    0.055683   -0.349468
     20          6           0        3.613990   -1.030352    0.511527
     21          1           0        4.469077   -1.528335    0.055062
     22          6           0        2.809047   -0.400759   -1.804781
     23          1           0        3.789616   -0.590617   -2.251036
     24          1           0        2.216889   -1.312679   -1.890543
     25          1           0        2.315407    0.390755   -2.376128
     26          6           0        3.911235    1.292595   -0.309829
     27          1           0        3.970032    1.676846    0.711750
     28          1           0        4.919272    1.032189   -0.645486
     29          1           0        3.512041    2.074267   -0.963648
     30          6           0        3.233982   -1.355032    1.748348
     31          1           0        3.754828   -2.121187    2.314372
     32          1           0        2.384823   -0.872041    2.222972
 ---------------------------------------------------------------------

 SCF Done:  E(RB3LYP) =  -1116.11285515     A.U. after    1 cycles

 The electronic state is 1-A.
 Alpha  occ. eigenvalues -- -101.55637 -19.18701 -10.27199 -10.26403 -10.25411
 Alpha  occ. eigenvalues --  -10.22047 -10.21416 -10.21028 -10.20377 -10.20294
 Alpha  occ. eigenvalues --  -10.20180 -10.20143 -10.20057 -10.20015 -10.19273
 Alpha  occ. eigenvalues --  -10.19021 -10.18835  -9.47114  -7.23509  -7.22557
 Alpha  occ. eigenvalues --   -7.22536  -1.07094  -0.90056  -0.85952  -0.83600
 Alpha  occ. eigenvalues --   -0.81625  -0.76726  -0.75660  -0.75554  -0.72128
 Alpha  occ. eigenvalues --   -0.70063  -0.64448  -0.63461  -0.62273  -0.60230
 Alpha  occ. eigenvalues --   -0.56175  -0.52703  -0.52079  -0.50586  -0.49032
 Alpha  occ. eigenvalues --   -0.48175  -0.46828  -0.45051  -0.44280  -0.43852
 Alpha  occ. eigenvalues --   -0.43502  -0.42185  -0.41707  -0.40946  -0.40263
 Alpha  occ. eigenvalues --   -0.39596  -0.39018  -0.37718  -0.37597  -0.35995
 Alpha  occ. eigenvalues --   -0.35743  -0.35266  -0.34798  -0.32297  -0.31802
 Alpha  occ. eigenvalues --   -0.30506  -0.27294  -0.27244  -0.25902  -0.21458
 Alpha virt. eigenvalues --   -0.05424  -0.02995  -0.01114   0.00100   0.00565
 Alpha virt. eigenvalues --    0.01340   0.01570   0.01729   0.02257   0.02632
 Alpha virt. eigenvalues --    0.03520   0.03687   0.04650   0.05142   0.05384

 Mulliken charges:
               1
     1  C   -0.515004
     2  C   -0.502994
     3  C    0.554559
     4  C    0.002071
     5  C   -0.052034
     6  C   -0.302550
     7  H    0.139008
     8  H    0.148750
     9  H    0.149218
    10  H    0.137321
    11  C    0.136545
    12  C   -0.062848
    13  C   -0.035879
    14  H    0.146273
    15  C   -0.390383
    16  H    0.152595
    17  O   -0.353064
    18  Cl   0.286504
    19  C    0.250906
    20  C   -0.151072
    21  H    0.136840
    22  C   -0.478311
    23  H    0.161051
    24  H    0.163715
    25  H    0.162072
    26  C   -0.405488
    27  H    0.166540
    28  H    0.157586
    29  H    0.160936
    30  C   -0.250419
    31  H    0.139989
    32  H    0.147565
 Sum of Mulliken charges =   0.00000

 Dipole moment (field-independent basis, Debye):
    X=              3.6249    Y=              0.4789    Z=             -0.9054  Tot=              3.7668
 Quadrupole moment (field-independent basis, Debye-Ang):
   XX=           -102.0053   YY=           -101.7945   ZZ=           -111.3398
   XY=             -8.2404   XZ=             -3.8413   YZ=             -0.4703

  Exact polarizability: 282.597  -7.104 266.333  -1.731   0.060 157.731
 Approx polarizability: 351.662  -9.605 363.357  -3.804   3.771 202.255

                      1                      2                      3
                      A                      A                      A
 Frequencies --     30.2163                51.9978                95.1519
 Red. masses --      4.2605                 4.2518                 3.0312
 Frc consts  --      0.0023                 0.0068                 0.0162
 IR Inten    --      1.1476                 0.1493                 0.4922

                      4                      5                      6
                      A                      A                      A
 Frequencies --    122.0419               123.1272               157.2804
 Red. masses --      3.4079                 3.8294                 4.2922
 Frc consts  --      0.0299                 0.0342                 0.0626
 IR Inten    --      0.2468                 0.0638                 1.1993

                      7                      8                      9
                      A                      A                      A
 Frequencies --    180.6527               193.4715               222.4961
 Red. masses --      4.1375                 4.4951                 1.1321
 Frc consts  --      0.0796                 0.0991                 0.0330
 IR Inten    --      1.5824                 2.4049                 0.2601

                     10                     11                     12
                      A                      A                      A
 Frequencies --    228.2251               274.9111               284.9584
 Red. masses --      6.0973                 2.3818                 1.1926
 Frc consts  --      0.1871                 0.1061                 0.0571
 IR Inten    --      1.6858                 0.7719                 0.5807

                     13                     14                     15
                      A                      A                      A
 Frequencies --    324.7187               335.7288               359.5995
 Red. masses --      2.7010                 3.3171                 4.0220
 Frc consts  --      0.1678                 0.2203                 0.3064
 IR Inten    --      1.0393                 2.3418                 1.5631

                     16                     17                     18
                      A                      A                      A
 Frequencies --    380.4632               413.4534               422.4764
 Red. masses --      2.8176                 4.6429                 3.1437
 Frc consts  --      0.2403                 0.4676                 0.3306
 IR Inten    --      0.1815                 4.2542                 7.6903

                     19                     20                     21
                      A                      A                      A
 Frequencies --    450.8420               476.9092               493.3162
 Red. masses --      3.1265                 3.4849                 4.8168
 Frc consts  --      0.3744                 0.4670                 0.6907
 IR Inten    --      1.3874                 0.7134                 4.1824

                     22                     23                     24
                      A                      A                      A
 Frequencies --    531.3260               558.0717               596.4046
 Red. masses --      6.0147                 4.5131                 3.5744
 Frc consts  --      1.0004                 0.8281                 0.7491
 IR Inten    --      5.8878                 2.4656                 6.4312

                     25                     26                     27
                      A                      A                      A
 Frequencies --    599.7932               640.6665               665.5102
 Red. masses --      3.7704                 3.9985                 4.5659
 Frc consts  --      0.7992                 0.9670                 1.1915
 IR Inten    --      1.7166                 8.4607                17.3528

                     28                     29                     30
                      A                      A                      A
 Frequencies --    695.4498               732.1547               767.0225
 Red. masses --      2.0272                 4.7916                 3.8294
 Frc consts  --      0.5777                 1.5133                 1.3274
 IR Inten    --     22.6856                 7.1588                20.6205

                     31                     32                     33
                      A                      A                      A
 Frequencies --    772.1285               782.8519               804.8197
 Red. masses --      2.3250                 1.9560                 4.8487
 Frc consts  --      0.8167                 0.7063                 1.8504
 IR Inten    --     35.0802                51.3050                 3.2909

                     34                     35                     36
                      A                      A                      A
 Frequencies --    841.9556               878.7109               886.3293
 Red. masses --      1.3836                 1.5513                 2.6400
 Frc consts  --      0.5779                 0.7057                 1.2219
 IR Inten    --     48.0728                 5.8634                72.2647

                     37                     38                     39
                      A                      A                      A
 Frequencies --    935.4049               945.0157               946.9996
 Red. masses --      1.9071                 1.6752                 1.4910
 Frc consts  --      0.9832                 0.8814                 0.7878
 IR Inten    --     16.1101                 3.2311                 3.6861

                     40                     41                     42
                      A                      A                      A
 Frequencies --    956.6384               963.0470               979.5467
 Red. masses --      1.3782                 3.3853                 1.3496
 Frc consts  --      0.7431                 1.8499                 0.7629
 IR Inten    --     52.7204                14.5858                 1.3252

                     43                     44                     45
                      A                      A                      A
 Frequencies --   1004.0576              1023.0397              1032.8966
 Red. masses --      1.2905                 1.1268                 1.2914
 Frc consts  --      0.7665                 0.6949                 0.8117
 IR Inten    --      0.0061                13.5680                 6.5168

                     46                     47                     48
                      A                      A                      A
 Frequencies --   1052.9908              1056.5582              1092.0248
 Red. masses --      2.6414                 1.3431                 2.9562
 Frc consts  --      1.7256                 0.8834                 2.0771
 IR Inten    --     31.2395                29.3919               115.2986

                     49                     50                     51
                      A                      A                      A
 Frequencies --   1157.5923              1186.6555              1193.3998
 Red. masses --      2.1705                 1.5715                 1.6560
 Frc consts  --      1.7136                 1.3038                 1.3896
 IR Inten    --      2.4989                73.3857                55.7116

                     52                     53                     54
                      A                      A                      A
 Frequencies --   1196.0927              1207.6007              1229.3939
 Red. masses --      1.5885                 3.3491                 1.6745
 Frc consts  --      1.3390                 2.8776                 1.4911
 IR Inten    --    103.4985                21.4859                33.6610

                     55                     56                     57
                      A                      A                      A
 Frequencies --   1244.9897              1273.1234              1290.9087
 Red. masses --      2.4913                 1.9644                 2.1941
 Frc consts  --      2.2751                 1.8759                 2.1543
 IR Inten    --    163.8167                55.9006                91.7845

                     58                     59                     60
                      A                      A                      A
 Frequencies --   1331.1885              1358.8888              1397.6405
 Red. masses --      1.3077                 4.7480                 7.1700
 Frc consts  --      1.3653                 5.1657                 8.2521
 IR Inten    --      5.4439                24.9904                55.8739

                     61                     62                     63
                      A                      A                      A
 Frequencies --   1404.5293              1409.1956              1424.4082
 Red. masses --      1.2432                 2.0754                 1.2139
 Frc consts  --      1.4449                 2.4283                 1.4512
 IR Inten    --     21.6781               108.8000                18.6594

                     64                     65                     66
                      A                      A                      A
 Frequencies --   1448.8932              1462.3481              1480.1546
 Red. masses --      1.1911                 2.3530                 1.0552
 Frc consts  --      1.4732                 2.9647                 1.3621
 IR Inten    --      9.4588                27.5705                 5.1813

                     67                     68                     69
                      A                      A                      A
 Frequencies --   1485.0570              1487.9181              1496.6983
 Red. masses --      1.2312                 1.7903                 1.0654
 Frc consts  --      1.5998                 2.3353                 1.4062
 IR Inten    --     16.0347                47.3824                 5.5860

                     70                     71                     72
                      A                      A                      A
 Frequencies --   1513.2379              1546.3721              1612.0073
 Red. masses --      1.0636                 3.4477                 7.0684
 Frc consts  --      1.4350                 4.8574                10.8219
 IR Inten    --     13.2473                21.0718                35.7058

                     73                     74                     75
                      A                      A                      A
 Frequencies --   1631.4536              1663.6701              1709.2383
 Red. masses --      5.5394                 6.0635                 4.7510
 Frc consts  --      8.6869                 9.8880                 8.1778
 IR Inten    --     83.3149                 5.3161                 6.4893

                     76                     77                     78
                      A                      A                      A
 Frequencies --   3047.4575              3057.6153              3124.2021
 Red. masses --      1.0344                 1.0370                 1.1034
 Frc consts  --      5.6597                 5.7123                 6.3453
 IR Inten    --     22.4803                22.6560                 2.8042

                     79                     80                     81
                      A                      A                      A
 Frequencies --   3129.9255              3136.7320              3149.3442
 Red. masses --      1.1026                 1.1033                 1.0733
 Frc consts  --      6.3638                 6.3957                 6.2719
 IR Inten    --     50.3681                19.8132                23.1026

                     82                     83                     84
                      A                      A                      A
 Frequencies --   3152.5730              3161.8780              3185.9829
 Red. masses --      1.1004                 1.0769                 1.0872
 Frc consts  --      6.4435                 6.3432                 6.5021
 IR Inten    --     21.5701                 9.3909                 7.5522

                     85                     86                     87
                      A                      A                      A
 Frequencies --   3200.3258              3211.4965              3221.8010
 Red. masses --      1.0920                 1.0914                 1.0932
 Frc consts  --      6.5894                 6.6322                 6.6855
 IR Inten    --     21.2723                 5.3990                 8.9822

                     88                     89                     90
                      A                      A                      A
 Frequencies --   3228.2036              3246.3427              3250.2481
 Red. masses --      1.0934                 1.1165                 1.0923
 Frc consts  --      6.7135                 6.9328                 6.7987
 IR Inten    --      9.5903                14.8767                 1.3224

 - Thermochemistry -
 -------------------
 Temperature   298.150 Kelvin.  Pressure   1.00000 Atm.
 Atom     1 has atomic number  6 and mass  12.00000

 Molecular mass:   246.08114 amu.
 Principal axes and moments of inertia in atomic units:
                           1         2         3
     Eigenvalues --  2588.966576410.359748199.99818
           X            0.99968  -0.02457  -0.00582
           Y            0.02454   0.99968  -0.00553
           Z            0.00595   0.00539   0.99997
 This molecule is an asymmetric top.
 Rotational symmetry number  1.
 Warning -- assumption of classical behavior for rotation
           may cause significant error
 Rotational temperatures (Kelvin)      0.03345     0.01351     0.01056
 Rotational constants (GHZ):           0.69709     0.28154     0.22009
 Zero-point vibrational energy     680138.3 (Joules/Mol)
                                  162.55694 (Kcal/Mol)
 Warning -- explicit consideration of  25 degrees of freedom as
           vibrations may cause significant error
 Vibrational temperatures:     43.47    74.81   136.90   175.59   177.15
          (Kelvin)            226.29   259.92   278.36   320.12   328.36
                              395.54   409.99   467.20   483.04   517.38
                              547.40   594.87   607.85   648.66   686.17
                              709.77   764.46   802.94   858.09   862.97
                              921.78   957.52  1000.60  1053.41  1103.57
                             1110.92  1126.35  1157.95  1211.38  1264.27
                             1275.23  1345.84  1359.67  1362.52  1376.39
                             1385.61  1409.35  1444.61  1471.92  1486.11
                             1515.02  1520.15  1571.18  1665.51  1707.33
                             1717.03  1720.91  1737.47  1768.82  1791.26
                             1831.74  1857.33  1915.28  1955.14  2010.89
                             2020.80  2027.52  2049.40  2084.63  2103.99
                             2129.61  2136.66  2140.78  2153.41  2177.21
                             2224.88  2319.32  2347.29  2393.65  2459.21
                             4384.61  4399.22  4495.02  4503.26  4513.05
                             4531.20  4535.84  4549.23  4583.91  4604.55
                             4620.62  4635.45  4644.66  4670.76  4676.38

 Zero-point correction=                           0.259051 (Hartree/Particle)
 Thermal correction to Energy=                    0.274614
 Thermal correction to Enthalpy=                  0.275558
 Thermal correction to Gibbs Free Energy=         0.216166
 Sum of electronic and zero-point Energies=          -1115.853804
 Sum of electronic and thermal Energies=             -1115.838241
 Sum of electronic and thermal Enthalpies=           -1115.837297
 Sum of electronic and thermal Free Energies=        -1115.896689

                     E (Thermal)             CV                S
                      KCal/Mol        Cal/Mol-Kelvin    Cal/Mol-Kelvin
 Total                  172.323             61.426            125.001
 Electronic               0.000              0.000              0.000
 Translational            0.889              2.981             42.402
 Rotational               0.889              2.981             33.275
 Vibrational            170.546             55.464             49.324
 Vibration     1          0.594              1.984              5.815
 Vibration     2          0.596              1.977              4.740
 Vibration     3          0.603              1.953              3.551
 Vibration     4          0.610              1.931              3.068
 Vibration     5          0.610              1.930              3.051
 Vibration     6          0.621              1.894              2.582
 Vibration     7          0.630              1.866              2.322
 Vibration     8          0.635              1.849              2.194
 Vibration     9          0.648              1.807              1.939
 Vibration    10          0.651              1.798              1.893
 Vibration    11          0.677              1.720              1.565
 Vibration    12          0.683              1.702              1.504
 Vibration    13          0.709              1.626              1.286
 Vibration    14          0.717              1.604              1.232
 Vibration    15          0.734              1.556              1.124
 Vibration    16          0.750              1.512              1.037
 Vibration    17          0.777              1.441              0.914
 Vibration    18          0.785              1.421              0.884
 Vibration    19          0.810              1.359              0.793
 Vibration    20          0.833              1.301              0.718
 Vibration    21          0.849              1.265              0.675
 Vibration    22          0.886              1.181              0.584
 Vibration    23          0.914              1.122              0.528
 Vibration    24          0.954              1.039              0.456
 Vibration    25          0.958              1.032              0.450

 Optimization completed.
    -- Stationary point found.
 Normal termination of Gaussian 09 at Thu Aug 27 19:35:05 2020.
