 Gaussian 09, Revision D.01,
 Gaussian 09:  ES64L-G09RevD.01 24-Apr-2013

 ----------------------------------------------------------------------
 # freq b3lyp/6-31+g(d,p) scrf=(cpcm,solvent=toluene) geom=connectivity
  empiricaldispersion=gd3
 ----------------------------------------------------------------------

 -------------------
 Title Card Required
 -------------------
 Symbolic Z-matrix:
 Charge =  0 Multiplicity = 1

                         Standard orientation:
 ---------------------------------------------------------------------
 Center     Atomic      Atomic             Coordinates (Angstroms)
 Number     Number       Type             X           Y           Z
 ---------------------------------------------------------------------
      1          6           0       -2.263100    2.714589    0.363311
      2          6           0       -2.607527    1.374248    0.348988
      3          6           0       -1.684160    0.390511   -0.087784
      4          6           0       -0.380928    0.811052   -0.500799
      5          6           0       -0.065989    2.186393   -0.492307
      6          6           0       -0.984932    3.128896   -0.065047
      7          1           0       -2.987223    3.450876    0.699711
      8          1           0       -3.597204    1.068443    0.668033
      9          1           0        0.921918    2.479051   -0.830811
     10          1           0       -0.725193    4.183323   -0.061097
     11          6           0        0.611539   -0.162319   -0.977305
     12          6           0       -1.990511   -1.014741   -0.151556
     13          6           0        0.235343   -1.538313   -0.951866
     14          1           0        0.896511   -2.251232   -1.428801
     15          6           0       -1.081085   -1.937565   -0.593503
     16          1           0       -1.356623   -2.985520   -0.649076
     17          8           0        1.789984    0.197328   -1.313044
     18         17           0       -3.595342   -1.581440    0.328367
     19          6           0        3.187130   -0.155402    0.462782
     20          6           0        2.773340   -1.489808    0.583458
     21          1           0        3.365476   -2.236158    0.058136
     22          6           0        4.458834    0.167524   -0.259177
     23          1           0        4.834632   -0.679601   -0.837389
     24          1           0        4.290098    1.010118   -0.936985
     25          1           0        5.230840    0.476045    0.459392
     26          6           0        2.623560    0.946067    1.311677
     27          1           0        1.562441    0.822542    1.530382
     28          1           0        3.164308    0.961562    2.268382
     29          1           0        2.765524    1.916322    0.831824
     30          6           0        1.544688   -1.881627    1.076466
     31          1           0        1.272970   -2.930733    1.102212
     32          1           0        0.905255   -1.216216    1.644171
 ---------------------------------------------------------------------

 SCF Done:  E(RB3LYP) =  -1116.08040789     A.U. after   16 cycles

 The electronic state is 1-A.
 Alpha  occ. eigenvalues -- -101.55747 -19.13079 -10.25608 -10.25188 -10.25170
 Alpha  occ. eigenvalues --  -10.22572 -10.21990 -10.20871 -10.20667 -10.20564
 Alpha  occ. eigenvalues --  -10.20284 -10.20225 -10.20121 -10.20019 -10.19832
 Alpha  occ. eigenvalues --  -10.19477 -10.19338  -9.47219  -7.23611  -7.22669
 Alpha  occ. eigenvalues --   -7.22640  -1.00966  -0.89659  -0.85619  -0.84155
 Alpha  occ. eigenvalues --   -0.81514  -0.76378  -0.76110  -0.75193  -0.71058
 Alpha  occ. eigenvalues --   -0.70143  -0.64081  -0.63205  -0.62629  -0.57719
 Alpha  occ. eigenvalues --   -0.54034  -0.52102  -0.51735  -0.49710  -0.48971
 Alpha  occ. eigenvalues --   -0.46873  -0.46331  -0.45982  -0.44082  -0.43233
 Alpha  occ. eigenvalues --   -0.42611  -0.41686  -0.41545  -0.40984  -0.39948
 Alpha  occ. eigenvalues --   -0.39114  -0.39046  -0.37529  -0.37495  -0.36412
 Alpha  occ. eigenvalues --   -0.36044  -0.35822  -0.34762  -0.31858  -0.30575
 Alpha  occ. eigenvalues --   -0.29537  -0.26824  -0.25753  -0.24785  -0.20634
 Alpha virt. eigenvalues --   -0.09146  -0.04536  -0.02512  -0.00016   0.00402
 Alpha virt. eigenvalues --    0.01026   0.01429   0.01802   0.02408   0.02794
 Alpha virt. eigenvalues --    0.03085   0.03363   0.04158   0.04634   0.04916

 Mulliken charges:
               1
     1  C   -0.451963
     2  C   -0.370376
     3  C    0.622067
     4  C    0.365077
     5  C   -0.448726
     6  C   -0.265417
     7  H    0.137589
     8  H    0.147832
     9  H    0.146089
    10  H    0.135827
    11  C   -0.236183
    12  C   -0.088146
    13  C    0.154896
    14  H    0.156825
    15  C   -0.318131
    16  H    0.146468
    17  O   -0.493170
    18  Cl   0.235187
    19  C    0.500782
    20  C   -0.012345
    21  H    0.128514
    22  C   -0.497346
    23  H    0.153910
    24  H    0.186110
    25  H    0.167072
    26  C   -0.646454
    27  H    0.160244
    28  H    0.173866
    29  H    0.166878
    30  C   -0.395782
    31  H    0.169255
    32  H    0.169551
 Sum of Mulliken charges =   0.00000

 Dipole moment (field-independent basis, Debye):
    X=              3.1626    Y=             -0.1694    Z=              2.6296  Tot=              4.1166
 Quadrupole moment (field-independent basis, Debye-Ang):
   XX=           -103.6514   YY=            -96.8417   ZZ=           -114.2837
   XY=             -4.8144   XZ=              3.2322   YZ=              3.1581

  Exact polarizability: 371.432 -10.080 278.077   6.588   1.251 170.963
 Approx polarizability: 498.923  -1.980 385.807   8.677  -1.604 247.475

 ******    1 imaginary frequencies (negative Signs) ******

                      1                      2                      3
                      A                      A                      A
 Frequencies --   -202.4028                42.1565                68.2567
 Red. masses --      6.8025                 3.7900                 4.6607
 Frc consts  --      0.1642                 0.0040                 0.0128
 IR Inten    --     38.4745                 0.0317                 0.8581

                      4                      5                      6
                      A                      A                      A
 Frequencies --     75.8608               130.2826               147.7740
 Red. masses --      5.7534                 4.3446                 1.6467
 Frc consts  --      0.0195                 0.0434                 0.0212
 IR Inten    --      1.5055                 0.6233                 6.0121

                      7                      8                      9
                      A                      A                      A
 Frequencies --    166.9192               172.1437               185.1438
 Red. masses --      1.9483                 1.5115                 1.9442
 Frc consts  --      0.0320                 0.0264                 0.0393
 IR Inten    --     13.1835                 0.9409                 3.5974

                     10                     11                     12
                      A                      A                      A
 Frequencies --    204.3089               226.6498               255.6612
 Red. masses --      3.3572                 9.0402                 6.0137
 Frc consts  --      0.0826                 0.2736                 0.2316
 IR Inten    --      7.0660                 4.4631                12.4346

                     13                     14                     15
                      A                      A                      A
 Frequencies --    302.6142               325.1322               336.5984
 Red. masses --      2.6152                 2.8666                 8.0179
 Frc consts  --      0.1411                 0.1785                 0.5352
 IR Inten    --     14.6458                 4.6639                24.6790

                     16                     17                     18
                      A                      A                      A
 Frequencies --    352.8001               378.9779               412.3953
 Red. masses --      4.5014                 7.9684                 2.3760
 Frc consts  --      0.3301                 0.6743                 0.2381
 IR Inten    --      2.6934                 1.1171                 1.0723

                     19                     20                     21
                      A                      A                      A
 Frequencies --    428.3934               448.8721               480.3458
 Red. masses --      2.7750                 2.3967                 3.9188
 Frc consts  --      0.3001                 0.2845                 0.5327
 IR Inten    --      5.7128                 1.4767                 0.2369

                     22                     23                     24
                      A                      A                      A
 Frequencies --    484.1560               530.8242               541.1505
 Red. masses --      6.6668                 6.3523                 2.7865
 Frc consts  --      0.9207                 1.0546                 0.4808
 IR Inten    --      2.2877                 9.3435                 2.3928

                     25                     26                     27
                      A                      A                      A
 Frequencies --    579.6177               598.1305               654.0963
 Red. masses --      5.3681                 3.5552                 7.3408
 Frc consts  --      1.0626                 0.7494                 1.8504
 IR Inten    --      4.9122                 1.0648                40.2145

                     28                     29                     30
                      A                      A                      A
 Frequencies --    690.2741               723.5391               739.1633
 Red. masses --      3.5236                 1.3483                 6.1850
 Frc consts  --      0.9892                 0.4159                 1.9910
 IR Inten    --      9.6708                17.3662                14.8813

                     31                     32                     33
                      A                      A                      A
 Frequencies --    777.8193               781.9541               791.9871
 Red. masses --      1.7513                 2.9027                 3.9201
 Frc consts  --      0.6243                 1.0457                 1.4487
 IR Inten    --     59.4007                 7.8643                 3.4456

                     34                     35                     36
                      A                      A                      A
 Frequencies --    800.5848               859.6038               888.6753
 Red. masses --      3.2242                 1.3003                 1.4920
 Frc consts  --      1.2176                 0.5661                 0.6942
 IR Inten    --     17.7116                63.2360                 1.8907

                     37                     38                     39
                      A                      A                      A
 Frequencies --    919.8005               935.8676               947.6171
 Red. masses --      1.2325                 1.2449                 5.6771
 Frc consts  --      0.6143                 0.6424                 3.0036
 IR Inten    --     40.2415                 5.6838                56.4443

                     40                     41                     42
                      A                      A                      A
 Frequencies --    977.8908               983.0739               996.4492
 Red. masses --      1.3087                 1.3552                 1.3001
 Frc consts  --      0.7373                 0.7717                 0.7606
 IR Inten    --     11.3387                 2.8663                 3.0869

                     43                     44                     45
                      A                      A                      A
 Frequencies --    998.9586              1006.0293              1014.9891
 Red. masses --      1.3192                 1.2938                 1.3012
 Frc consts  --      0.7757                 0.7715                 0.7898
 IR Inten    --      8.8125                 0.0602                 5.7788

                     46                     47                     48
                      A                      A                      A
 Frequencies --   1052.7320              1075.8056              1084.0868
 Red. masses --      2.8055                 1.6319                 2.3165
 Frc consts  --      1.8319                 1.1128                 1.6040
 IR Inten    --     29.2731                70.6379                15.8953

                     49                     50                     51
                      A                      A                      A
 Frequencies --   1089.9176              1135.5636              1169.6785
 Red. masses --      1.5054                 2.0121                 1.5718
 Frc consts  --      1.0537                 1.5287                 1.2670
 IR Inten    --      5.0789                21.7835                 5.2652

                     52                     53                     54
                      A                      A                      A
 Frequencies --   1186.3697              1217.9104              1253.5087
 Red. masses --      1.2828                 1.7363                 2.8130
 Frc consts  --      1.0638                 1.5174                 2.6042
 IR Inten    --     17.5802                31.2082                12.3231

                     55                     56                     57
                      A                      A                      A
 Frequencies --   1272.1161              1298.1157              1329.6177
 Red. masses --      1.6665                 1.7508                 3.7183
 Frc consts  --      1.5889                 1.7383                 3.8730
 IR Inten    --     17.1810                25.1564                 9.8579

                     58                     59                     60
                      A                      A                      A
 Frequencies --   1344.5841              1369.7766              1377.2498
 Red. masses --      2.2185                 1.5735                 5.0502
 Frc consts  --      2.3632                 1.7394                 5.6440
 IR Inten    --     21.7186                42.5936                11.0652

                     61                     62                     63
                      A                      A                      A
 Frequencies --   1403.2722              1416.7956              1425.8114
 Red. masses --      1.2802                 1.4249                 2.7412
 Frc consts  --      1.4853                 1.6851                 3.2834
 IR Inten    --     19.0040                25.9928                23.2935

                     64                     65                     66
                      A                      A                      A
 Frequencies --   1460.1108              1466.1998              1473.0897
 Red. masses --      1.2027                 1.1978                 1.9370
 Frc consts  --      1.5107                 1.5171                 2.4765
 IR Inten    --     34.4200                28.7339                 8.6744

                     67                     68                     69
                      A                      A                      A
 Frequencies --   1478.3533              1483.8006              1506.1401
 Red. masses --      1.0933                 2.6567                 1.2237
 Frc consts  --      1.4078                 3.4463                 1.6355
 IR Inten    --     13.8550                54.1749               100.1668

                     70                     71                     72
                      A                      A                      A
 Frequencies --   1517.4263              1532.6994              1567.0362
 Red. masses --      1.6232                 2.5315                 3.4058
 Frc consts  --      2.2021                 3.5039                 4.9276
 IR Inten    --     49.2268                27.4006                39.4755

                     73                     74                     75
                      A                      A                      A
 Frequencies --   1608.9166              1618.0248              1653.6528
 Red. masses --      5.3812                 4.3857                 5.7124
 Frc consts  --      8.2072                 6.7648                 9.2036
 IR Inten    --     51.9596               179.3653                 7.2923

                     76                     77                     78
                      A                      A                      A
 Frequencies --   3023.1791              3028.0523              3095.4537
 Red. masses --      1.0455                 1.0497                 1.0903
 Frc consts  --      5.6299                 5.6708                 6.1551
 IR Inten    --     16.6215                56.2298                 9.0062

                     79                     80                     81
                      A                      A                      A
 Frequencies --   3112.7254              3137.4956              3156.8308
 Red. masses --      1.0836                 1.1032                 1.1024
 Frc consts  --      6.1859                 6.3986                 6.4727
 IR Inten    --      6.7517                18.8121                 9.5837

                     82                     83                     84
                      A                      A                      A
 Frequencies --   3164.8743              3183.6468              3184.3153
 Red. masses --      1.0871                 1.0610                 1.0869
 Frc consts  --      6.4158                 6.3360                 6.4933
 IR Inten    --     32.0565                 8.5559                 6.3415

                     85                     86                     87
                      A                      A                      A
 Frequencies --   3198.7289              3203.3848              3217.1812
 Red. masses --      1.0916                 1.0906                 1.0927
 Frc consts  --      6.5804                 6.5936                 6.6636
 IR Inten    --     21.1587                 8.0389                10.4639

                     88                     89                     90
                      A                      A                      A
 Frequencies --   3221.3549              3227.7470              3273.3891
 Red. masses --      1.0939                 1.0924                 1.1169
 Frc consts  --      6.6882                 6.7052                 7.0511
 IR Inten    --     14.0058                 4.6428                 3.3399

 - Thermochemistry -
 -------------------
 Temperature   298.150 Kelvin.  Pressure   1.00000 Atm.
 Atom     1 has atomic number  6 and mass  12.00000

 Molecular mass:   246.08114 amu.
 Principal axes and moments of inertia in atomic units:
                           1         2         3
     Eigenvalues --  2680.101425641.311097412.46799
           X            0.99978  -0.02050   0.00376
           Y            0.02045   0.99972   0.01203
           Z           -0.00400  -0.01195   0.99992
 This molecule is an asymmetric top.
 Rotational symmetry number  1.
 Warning -- assumption of classical behavior for rotation
           may cause significant error
 Rotational temperatures (Kelvin)      0.03232     0.01535     0.01168
 Rotational constants (GHZ):           0.67339     0.31992     0.24347
    1 imaginary frequencies ignored.
 Zero-point vibrational energy     673858.0 (Joules/Mol)
                                  161.05593 (Kcal/Mol)
 Warning -- explicit consideration of  25 degrees of freedom as
           vibrations may cause significant error
 Vibrational temperatures:     60.65    98.21   109.15   187.45   212.61
          (Kelvin)            240.16   247.68   266.38   293.95   326.10
                              367.84   435.39   467.79   484.29   507.60
                              545.26   593.34   616.36   645.83   691.11
                              696.59   763.74   778.59   833.94   860.58
                              941.10   993.15  1041.01  1063.49  1119.11
                             1125.06  1139.49  1151.86  1236.78  1278.60
                             1323.39  1346.50  1363.41  1406.96  1414.42
                             1433.67  1437.28  1447.45  1460.34  1514.64
                             1547.84  1559.76  1568.15  1633.82  1682.90
                             1706.92  1752.30  1803.52  1830.29  1867.70
                             1913.02  1934.55  1970.80  1981.55  2018.99
                             2038.45  2051.42  2100.77  2109.53  2119.44
                             2127.02  2134.86  2167.00  2183.24  2205.21
                             2254.61  2314.87  2327.97  2379.23  4349.67
                             4356.69  4453.66  4478.51  4514.15  4541.97
                             4553.54  4580.55  4581.51  4602.25  4608.95
                             4628.80  4634.81  4644.00  4709.67

 Zero-point correction=                           0.256659 (Hartree/Particle)
 Thermal correction to Energy=                    0.272123
 Thermal correction to Enthalpy=                  0.273067
 Thermal correction to Gibbs Free Energy=         0.214305
 Sum of electronic and zero-point Energies=          -1115.823749
 Sum of electronic and thermal Energies=             -1115.808285
 Sum of electronic and thermal Enthalpies=           -1115.807341
 Sum of electronic and thermal Free Energies=        -1115.866103

                     E (Thermal)             CV                S
                      KCal/Mol        Cal/Mol-Kelvin    Cal/Mol-Kelvin
 Total                  170.760             60.854            123.674
 Electronic               0.000              0.000              0.000
 Translational            0.889              2.981             42.402
 Rotational               0.889              2.981             33.083
 Vibrational            168.982             54.893             48.189
 Vibration     1          0.595              1.980              5.155
 Vibration     2          0.598              1.969              4.203
 Vibration     3          0.599              1.965              3.995
 Vibration     4          0.612              1.923              2.942
 Vibration     5          0.617              1.905              2.701
 Vibration     6          0.624              1.883              2.470
 Vibration     7          0.626              1.877              2.412
 Vibration     8          0.631              1.860              2.276
 Vibration     9          0.640              1.834              2.094
 Vibration    10          0.650              1.800              1.905
 Vibration    11          0.666              1.753              1.691
 Vibration    12          0.694              1.669              1.402
 Vibration    13          0.709              1.625              1.284
 Vibration    14          0.717              1.602              1.228
 Vibration    15          0.729              1.570              1.154
 Vibration    16          0.749              1.515              1.043
 Vibration    17          0.776              1.443              0.918
 Vibration    18          0.790              1.408              0.864
 Vibration    19          0.808              1.363              0.799
 Vibration    20          0.837              1.294              0.709
 Vibration    21          0.840              1.285              0.699
 Vibration    22          0.886              1.182              0.585
 Vibration    23          0.896              1.159              0.563
 Vibration    24          0.936              1.075              0.486
 Vibration    25          0.956              1.036              0.453

 Normal termination of Gaussian 09 at Thu Aug 27 21:54:54 2020.
