 Gaussian 09, Revision D.01,
 Gaussian 09:  ES64L-G09RevD.01 24-Apr-2013

 ----------------------------------------------------------------------
 # opt freq b3lyp/6-31+g(d,p) scrf=(cpcm,solvent=toluene) geom=connecti
 vity empiricaldispersion=gd3
 ----------------------------------------------------------------------

 -------------------
 Title Card Required
 -------------------
 Symbolic Z-matrix:
 Charge =  0 Multiplicity = 1

 SCF Done:  E(RB3LYP) =  -566.425340506     A.U. after   14 cycles
 SCF Done:  E(RB3LYP) =  -566.427357648     A.U. after   11 cycles
 SCF Done:  E(RB3LYP) =  -566.426535225     A.U. after   11 cycles
 SCF Done:  E(RB3LYP) =  -566.427581959     A.U. after    8 cycles
 SCF Done:  E(RB3LYP) =  -566.427775263     A.U. after   10 cycles
 SCF Done:  E(RB3LYP) =  -566.427822444     A.U. after   10 cycles
 SCF Done:  E(RB3LYP) =  -566.427847206     A.U. after   10 cycles
 SCF Done:  E(RB3LYP) =  -566.427859189     A.U. after   11 cycles
 SCF Done:  E(RB3LYP) =  -566.427861867     A.U. after   11 cycles
 SCF Done:  E(RB3LYP) =  -566.427864154     A.U. after    9 cycles
 SCF Done:  E(RB3LYP) =  -566.427864759     A.U. after    8 cycles
 SCF Done:  E(RB3LYP) =  -566.427864903     A.U. after    9 cycles
 Optimization completed.
    -- Stationary point found.
 Normal termination of Gaussian 09 at Thu Sep 17 15:26:39 2020.

 ----------------------------------------------------------------------
 #N Geom=AllCheck Guess=TCheck SCRF=Check GenChk RB3LYP/6-31+G(d,p) Fre
 q
 ----------------------------------------------------------------------

 Structure from the checkpoint file:  "b3lyp_m062x_dmad_cycloaddition_PM6_toluene.chk"
 -------------------
 Title Card Required
 -------------------
 Charge =  0 Multiplicity = 1

                         Standard orientation:
 ---------------------------------------------------------------------
 Center     Atomic      Atomic             Coordinates (Angstroms)
 Number     Number       Type             X           Y           Z
 ---------------------------------------------------------------------
      1          7           0        0.343716    0.192324   -0.479273
      2          7           0       -0.343725   -0.192222    0.479321
      3          6           0        1.723385    0.451260   -0.118982
      4          6           0       -1.723376   -0.451239    0.119014
      5          8           0       -2.120417   -1.577809   -0.063703
      6          8           0        2.120481    1.577807    0.063749
      7          8           0       -2.424134    0.671916    0.132062
      8          8           0        2.424096   -0.671925   -0.132090
      9          6           0        3.853643   -0.533372    0.096590
     10          1           0        4.252241   -1.541783    0.006963
     11          1           0        4.285576    0.128146   -0.656765
     12          1           0        4.028714   -0.130428    1.095720
     13          6           0       -3.853667    0.533293   -0.096661
     14          1           0       -4.252311    1.541690   -0.007072
     15          1           0       -4.028687    0.130318   -1.095787
     16          1           0       -4.285595   -0.128225    0.656697
 ---------------------------------------------------------------------

 SCF Done:  E(RB3LYP) =  -566.427864903     A.U. after    1 cycles

 The electronic state is 1-A.
 Alpha  occ. eigenvalues --  -19.23850 -19.23850 -19.18307 -19.18307 -14.44890
 Alpha  occ. eigenvalues --  -14.44838 -10.37464 -10.37464 -10.26263 -10.26263
 Alpha  occ. eigenvalues --   -1.16279  -1.15016  -1.08298  -1.06311  -1.05906
 Alpha  occ. eigenvalues --   -0.82686  -0.76093  -0.72574  -0.62852  -0.58796
 Alpha  occ. eigenvalues --   -0.57456  -0.53880  -0.51835  -0.50996  -0.50859
 Alpha  occ. eigenvalues --   -0.48575  -0.46141  -0.46040  -0.43098  -0.42463
 Alpha  occ. eigenvalues --   -0.41066  -0.39493  -0.39352  -0.34226  -0.34073
 Alpha  occ. eigenvalues --   -0.34062  -0.32683  -0.27736
 Alpha virt. eigenvalues --   -0.10485  -0.02422  -0.01803   0.00752   0.01089
 Alpha virt. eigenvalues --    0.02384   0.03079   0.03747   0.04006   0.05032
 Alpha virt. eigenvalues --    0.05288   0.07618   0.07836   0.08460   0.09628

 Mulliken charges:
               1
     1  N   -0.114260
     2  N   -0.114246
     3  C    0.564423
     4  C    0.564421
     5  O   -0.466867
     6  O   -0.466869
     7  O   -0.315180
     8  O   -0.315180
     9  C   -0.194607
    10  H    0.172245
    11  H    0.176998
    12  H    0.177242
    13  C   -0.194606
    14  H    0.172245
    15  H    0.177242
    16  H    0.176998
 Sum of Mulliken charges =   0.00000

 Dipole moment (field-independent basis, Debye):
    X=             -0.0001    Y=             -0.0001    Z=             -0.0001  Tot=              0.0002
 Quadrupole moment (field-independent basis, Debye-Ang):
   XX=            -29.0255   YY=            -67.5223   ZZ=            -57.3101
   XY=            -12.3347   XZ=              0.2454   YZ=             -0.8171

  Exact polarizability: 119.517   3.141  86.789  -1.066  -0.091  62.785
 Approx polarizability: 120.344  10.224 121.042  -3.737   0.420  82.026

                      1                      2                      3
                      A                      A                      A
 Frequencies --     15.9337                67.4247                76.0639
 Red. masses --      5.7725                 9.0692                 5.1215
 Frc consts  --      0.0009                 0.0243                 0.0175
 IR Inten    --      8.1293                 0.0000                 7.5680

                      4                      5                      6
                      A                      A                      A
 Frequencies --     94.1006               120.5137               125.1084
 Red. masses --      3.1247                 1.1169                 1.1691
 Frc consts  --      0.0163                 0.0096                 0.0108
 IR Inten    --      2.2650                 0.0000                 0.0686

                      7                      8                      9
                      A                      A                      A
 Frequencies --    149.1562               247.9438               255.9206
 Red. masses --      3.3609                 6.7878                 7.1163
 Frc consts  --      0.0441                 0.2459                 0.2746
 IR Inten    --      0.0000                 0.0000                14.8343

                     10                     11                     12
                      A                      A                      A
 Frequencies --    289.6366               289.8203               431.8264
 Red. masses --      4.3591                 4.3297                10.5868
 Frc consts  --      0.2155                 0.2143                 1.1631
 IR Inten    --     47.6091                 0.0020                 0.0000

                     13                     14                     15
                      A                      A                      A
 Frequencies --    578.3675               608.8050               641.0671
 Red. masses --      8.8162                10.3554                 9.3513
 Frc consts  --      1.7376                 2.2614                 2.2643
 IR Inten    --      6.6407                 0.0000                18.5523

                     16                     17                     18
                      A                      A                      A
 Frequencies --    816.0204               838.5157               897.2876
 Red. masses --     11.7569                 6.1914                 6.2246
 Frc consts  --      4.6126                 2.5648                 2.9527
 IR Inten    --     46.4935                 0.0000                82.7241

                     19                     20                     21
                      A                      A                      A
 Frequencies --    929.6642              1018.7529              1018.9773
 Red. masses --      8.9877                 9.7812                 9.1182
 Frc consts  --      4.5767                 5.9811                 5.5781
 IR Inten    --      0.0000                 0.0015                61.3382

                     22                     23                     24
                      A                      A                      A
 Frequencies --   1172.6083              1172.7136              1206.3223
 Red. masses --      1.2677                 1.2676                 1.4767
 Frc consts  --      1.0270                 1.0271                 1.2661
 IR Inten    --      2.8286                 0.0001                 0.0000

                     25                     26                     27
                      A                      A                      A
 Frequencies --   1206.9424              1271.5432              1283.4563
 Red. masses --      1.4990                 7.1623                 7.5937
 Frc consts  --      1.2866                 6.8229                 7.3699
 IR Inten    --     31.6630              1353.7028                 0.0000

                     28                     29                     30
                      A                      A                      A
 Frequencies --   1472.9074              1473.1751              1483.9230
 Red. masses --      1.1966                 1.1958                 1.0467
 Frc consts  --      1.5296                 1.5291                 1.3580
 IR Inten    --      0.0000                44.1110                 0.0001

                     31                     32                     33
                      A                      A                      A
 Frequencies --   1483.9628              1490.0364              1490.0577
 Red. masses --      1.0477                 1.0475                 1.0468
 Frc consts  --      1.3594                 1.3702                 1.3693
 IR Inten    --     26.8976                26.1453                 0.0007

                     34                     35                     36
                      A                      A                      A
 Frequencies --   1668.9314              1801.8901              1812.0380
 Red. masses --     13.9623                11.8763                11.8739
 Frc consts  --     22.9131                22.7190                22.9708
 IR Inten    --      0.0000                 0.0000               982.3177

                     37                     38                     39
                      A                      A                      A
 Frequencies --   3074.4511              3074.5769              3163.6858
 Red. masses --      1.0289                 1.0290                 1.1089
 Frc consts  --      5.7303                 5.7310                 6.5395
 IR Inten    --     53.6226                 0.0002                 0.0073

                     40                     41                     42
                      A                      A                      A
 Frequencies --   3163.6969              3197.3804              3197.3810
 Red. masses --      1.1089                 1.1081                 1.1081
 Frc consts  --      6.5395                 6.6745                 6.6744
 IR Inten    --     24.8035                15.0358                 0.0188

 - Thermochemistry -
 -------------------
 Temperature   298.150 Kelvin.  Pressure   1.00000 Atm.
 Atom     1 has atomic number  7 and mass  14.00307

 Molecular mass:   146.03276 amu.
 Principal axes and moments of inertia in atomic units:
                           1         2         3
     Eigenvalues --   437.205753143.249533502.17521
           X            0.99985  -0.01706   0.00385
           Y            0.01708   0.99984  -0.00516
           Z           -0.00376   0.00522   0.99998
 This molecule is an asymmetric top.
 Rotational symmetry number  1.
 Warning -- assumption of classical behavior for rotation
           may cause significant error
 Rotational temperatures (Kelvin)      0.19811     0.02756     0.02473
 Rotational constants (GHZ):           4.12790     0.57416     0.51532
 Zero-point vibrational energy     298304.3 (Joules/Mol)
                                   71.29644 (Kcal/Mol)
 Warning -- explicit consideration of  14 degrees of freedom as
           vibrations may cause significant error
 Vibrational temperatures:     22.93    97.01   109.44   135.39   173.39
          (Kelvin)            180.00   214.60   356.74   368.21   416.72
                              416.99   621.30   832.14   875.93   922.35
                             1174.07  1206.44  1291.00  1337.58  1465.76
                             1466.08  1687.12  1687.27  1735.63  1736.52
                             1829.46  1846.61  2119.18  2119.57  2135.03
                             2135.09  2143.83  2143.86  2401.22  2592.51
                             2607.12  4423.44  4423.62  4551.83  4551.85
                             4600.31  4600.31

 Zero-point correction=                           0.113618 (Hartree/Particle)
 Thermal correction to Energy=                    0.124738
 Thermal correction to Enthalpy=                  0.125682
 Thermal correction to Gibbs Free Energy=         0.074297
 Sum of electronic and zero-point Energies=           -566.314247
 Sum of electronic and thermal Energies=              -566.303127
 Sum of electronic and thermal Enthalpies=            -566.302182
 Sum of electronic and thermal Free Energies=         -566.353568

                     E (Thermal)             CV                S
                      KCal/Mol        Cal/Mol-Kelvin    Cal/Mol-Kelvin
 Total                   78.274             35.571            108.151
 Electronic               0.000              0.000              0.000
 Translational            0.889              2.981             40.847
 Rotational               0.889              2.981             29.955
 Vibrational             76.497             29.610             37.349
 Vibration     1          0.593              1.986              7.086
 Vibration     2          0.598              1.970              4.227
 Vibration     3          0.599              1.965              3.990
 Vibration     4          0.603              1.953              3.573
 Vibration     5          0.609              1.932              3.092
 Vibration     6          0.610              1.928              3.020
 Vibration     7          0.618              1.904              2.683
 Vibration     8          0.662              1.766              1.745
 Vibration     9          0.666              1.753              1.689
 Vibration    10          0.686              1.693              1.476
 Vibration    11          0.686              1.693              1.475
 Vibration    12          0.793              1.401              0.853
 Vibration    13          0.935              1.078              0.488
 Vibration    14          0.968              1.013              0.435

 Normal termination of Gaussian 09 at Thu Sep 17 15:29:22 2020.
