 Gaussian 09, Revision D.01,
 Gaussian 09:  ES64L-G09RevD.01 24-Apr-2013

 ----------------------------------------------------------------------
 # opt freq b3lyp/6-31+g(d,p) scrf=(cpcm,solvent=toluene) geom=connecti
 vity empiricaldispersion=gd3
 ----------------------------------------------------------------------

 -------------------
 Title Card Required
 -------------------
 Symbolic Z-matrix:
 Charge =  0 Multiplicity = 1

 SCF Done:  E(RB3LYP) =  -271.473820152     A.U. after   12 cycles
 SCF Done:  E(RB3LYP) =  -271.474439896     A.U. after    9 cycles
 SCF Done:  E(RB3LYP) =  -271.474434259     A.U. after    9 cycles
 Optimization completed.
    -- Stationary point found.
 Normal termination of Gaussian 09 at Thu Sep 17 15:27:23 2020.

 ----------------------------------------------------------------------
 #N Geom=AllCheck Guess=TCheck SCRF=Check GenChk RB3LYP/6-31+G(d,p) Fre
 q
 ----------------------------------------------------------------------

 Structure from the checkpoint file:  "b3lyp_m062x_quadricyclane_cycloaddition_PM6_toluene.chk"
 -------------------
 Title Card Required
 -------------------
 Charge =  0 Multiplicity = 1

                         Standard orientation:
 ---------------------------------------------------------------------
 Center     Atomic      Atomic             Coordinates (Angstroms)
 Number     Number       Type             X           Y           Z
 ---------------------------------------------------------------------
      1          6           0        0.759032    0.775850   -0.710351
      2          6           0        0.000000    1.153722    0.551407
      3          6           0        0.000000   -1.153722    0.551407
      4          6           0        0.759391   -0.775584   -0.710082
      5          1           0        1.449897    1.427928   -1.232161
      6          1           0        1.450618   -1.427489   -1.231619
      7          6           0        0.000000    0.000000    1.540751
      8          1           0       -0.892286    0.000018    2.178439
      9          1           0        0.892286   -0.000018    2.178439
     10          6           0       -0.759391    0.775584   -0.710082
     11          1           0       -1.450618    1.427489   -1.231619
     12          6           0       -0.759032   -0.775850   -0.710351
     13          1           0       -1.449897   -1.427928   -1.232161
     14          1           0       -0.000001    2.189443    0.877242
     15          1           0        0.000001   -2.189443    0.877242
 ---------------------------------------------------------------------

 SCF Done:  E(RB3LYP) =  -271.474434259     A.U. after    1 cycles

 The electronic state is 1-A.
 Alpha  occ. eigenvalues --  -10.19344 -10.19343 -10.19291 -10.19274 -10.19272
 Alpha  occ. eigenvalues --  -10.19254 -10.18481  -0.94121  -0.78328  -0.73283
 Alpha  occ. eigenvalues --   -0.63554  -0.56706  -0.55234  -0.53509  -0.51949
 Alpha  occ. eigenvalues --   -0.44155  -0.43225  -0.43086  -0.39610  -0.35196
 Alpha  occ. eigenvalues --   -0.34451  -0.31300  -0.28165  -0.27093  -0.22505
 Alpha virt. eigenvalues --    0.00838   0.01972   0.02382   0.02597   0.04256
 Alpha virt. eigenvalues --    0.04472   0.04778   0.06594   0.07212   0.08248
 Alpha virt. eigenvalues --    0.10233   0.10568   0.11250   0.11318   0.11526

 Mulliken charges:
               1
     1  C   -0.146811
     2  C   -0.051260
     3  C   -0.051260
     4  C   -0.146971
     5  H    0.125581
     6  H    0.125576
     7  C   -0.367669
     8  H    0.142113
     9  H    0.142113
    10  C   -0.146971
    11  H    0.125576
    12  C   -0.146811
    13  H    0.125581
    14  H    0.135606
    15  H    0.135606
 Sum of Mulliken charges =   0.00000

 Dipole moment (field-independent basis, Debye):
    X=              0.0000    Y=              0.0000    Z=             -0.0123  Tot=              0.0123
 Quadrupole moment (field-independent basis, Debye-Ang):
   XX=            -42.5610   YY=            -39.7202   ZZ=            -42.3306
   XY=              0.0005   XZ=              0.0000   YZ=              0.0000

  Exact polarizability:  76.267   0.000  79.519   0.000   0.000  83.353
 Approx polarizability: 101.440   0.003  94.304   0.000   0.000 102.875

                      1                      2                      3
                      B                      A                      B
 Frequencies --    393.9512               535.1926               679.5203
 Red. masses --      1.8380                 2.8226                 3.9529
 Frc consts  --      0.1681                 0.4763                 1.0754
 IR Inten    --      1.3297                 0.0000                 0.0225

                      4                      5                      6
                      B                      A                      A
 Frequencies --    702.8831               727.4022               736.3721
 Red. masses --      1.7350                 3.6737                 5.3058
 Frc consts  --      0.5050                 1.1453                 1.6951
 IR Inten    --      2.5734                 0.0000                 0.3918

                      7                      8                      9
                      B                      A                      A
 Frequencies --    771.0773               802.0137               833.8361
 Red. masses --      2.2192                 1.4283                 1.6113
 Frc consts  --      0.7774                 0.5413                 0.6601
 IR Inten    --     59.9733                43.1493                 0.0000

                     10                     11                     12
                      B                      A                      B
 Frequencies --    865.5255               907.4796               913.7718
 Red. masses --      2.1960                 2.0532                 1.2974
 Frc consts  --      0.9693                 0.9962                 0.6382
 IR Inten    --      1.2448                 6.5889                11.3493

                     13                     14                     15
                      B                      A                      B
 Frequencies --    930.0766               957.2079               968.6242
 Red. masses --      1.7760                 2.3299                 2.5422
 Frc consts  --      0.9052                 1.2578                 1.4053
 IR Inten    --      9.5430                 2.3669                 0.9611

                     16                     17                     18
                      A                      B                      A
 Frequencies --    998.4085              1015.2634              1029.9240
 Red. masses --      1.8682                 1.4140                 1.2880
 Frc consts  --      1.0972                 0.8587                 0.8050
 IR Inten    --      0.2598                 0.0001                 0.0000

                     19                     20                     21
                      B                      A                      B
 Frequencies --   1045.1308              1051.3408              1074.8466
 Red. masses --      1.1809                 2.0588                 1.7111
 Frc consts  --      0.7600                 1.3408                 1.1647
 IR Inten    --      0.4465                 0.0000                 0.0480

                     22                     23                     24
                      A                      A                      A
 Frequencies --   1100.7903              1183.7730              1215.2946
 Red. masses --      1.9719                 1.2201                 1.3408
 Frc consts  --      1.4078                 1.0074                 1.1667
 IR Inten    --      1.5980                 0.0000                 0.0000

                     25                     26                     27
                      B                      B                      A
 Frequencies --   1246.8114              1272.3441              1281.5973
 Red. masses --      1.4834                 1.7377                 2.9857
 Frc consts  --      1.3587                 1.6575                 2.8893
 IR Inten    --      0.0059                22.1010                 2.4676

                     28                     29                     30
                      B                      A                      B
 Frequencies --   1285.0399              1366.7780              1391.4170
 Red. masses --      2.0168                 2.3048                 2.7046
 Frc consts  --      1.9622                 2.5368                 3.0851
 IR Inten    --      3.0433                 0.4316                 0.1236

                     31                     32                     33
                      A                      A                      B
 Frequencies --   1487.0552              3037.8117              3080.9651
 Red. masses --      1.1130                 1.0578                 1.1067
 Frc consts  --      1.4501                 5.7512                 6.1894
 IR Inten    --      0.4625                72.5672                43.6149

                     34                     35                     36
                      B                      A                      A
 Frequencies --   3184.6433              3187.5064              3194.0283
 Red. masses --      1.0904                 1.0915                 1.0889
 Frc consts  --      6.5157                 6.5340                 6.5452
 IR Inten    --     18.5594                13.8215                 0.0000

                     37                     38                     39
                      B                      B                      A
 Frequencies --   3203.4000              3205.3111              3215.1287
 Red. masses --      1.0917                 1.0954                 1.1030
 Frc consts  --      6.6003                 6.6309                 6.7179
 IR Inten    --     41.3899                47.7522                10.2195

 - Thermochemistry -
 -------------------
 Temperature   298.150 Kelvin.  Pressure   1.00000 Atm.
 Atom     1 has atomic number  6 and mass  12.00000

 Molecular mass:    92.06260 amu.
 Principal axes and moments of inertia in atomic units:
                           1         2         3
     Eigenvalues --   410.55104 415.88484 556.81399
           X           -0.00007   0.00000   1.00000
           Y            1.00000   0.00000   0.00007
           Z            0.00000   1.00000   0.00000
 This molecule is an asymmetric top.
 Rotational symmetry number  2.
 Rotational temperatures (Kelvin)      0.21097     0.20826     0.15555
 Rotational constants (GHZ):           4.39590     4.33952     3.24119
 Zero-point vibrational energy     335430.2 (Joules/Mol)
                                   80.16973 (Kcal/Mol)
 Warning -- explicit consideration of   2 degrees of freedom as
           vibrations may cause significant error
 Vibrational temperatures:    566.81   770.02   977.68  1011.29  1046.57
          (Kelvin)           1059.47  1109.41  1153.92  1199.70  1245.30
                             1305.66  1314.71  1338.17  1377.21  1393.63
                             1436.49  1460.74  1481.83  1503.71  1512.64
                             1546.46  1583.79  1703.18  1748.54  1793.88
                             1830.62  1843.93  1848.88  1966.49  2001.94
                             2139.54  4370.73  4432.82  4581.99  4586.11
                             4595.49  4608.97  4611.72  4625.85

 Zero-point correction=                           0.127759 (Hartree/Particle)
 Thermal correction to Energy=                    0.132396
 Thermal correction to Enthalpy=                  0.133340
 Thermal correction to Gibbs Free Energy=         0.100517
 Sum of electronic and zero-point Energies=           -271.346676
 Sum of electronic and thermal Energies=              -271.342039
 Sum of electronic and thermal Enthalpies=            -271.341095
 Sum of electronic and thermal Free Energies=         -271.373918

                     E (Thermal)             CV                S
                      KCal/Mol        Cal/Mol-Kelvin    Cal/Mol-Kelvin
 Total                   83.079             20.302             69.082
 Electronic               0.000              0.000              0.000
 Translational            0.889              2.981             39.472
 Rotational               0.889              2.981             24.678
 Vibrational             81.302             14.340              4.932
 Vibration     1          0.761              1.483              0.985
 Vibration     2          0.890              1.172              0.576

 Optimization completed.
    -- Stationary point found.
 Normal termination of Gaussian 09 at Thu Sep 17 15:28:50 2020.
