 Gaussian 09, Revision D.01,
 Gaussian 09:  ES64L-G09RevD.01 24-Apr-2013

 ----------------------------------------------------------------------
 # opt freq b3lyp/6-31+g(d,p) scrf=(cpcm,solvent=toluene) geom=connecti
 vity empiricaldispersion=gd3
 ----------------------------------------------------------------------

 -------------------
 Title Card Required
 -------------------
 Symbolic Z-matrix:
 Charge =  0 Multiplicity = 3

 SCF Done:  E(UB3LYP) =  -837.924691904     A.U. after   18 cycles
 SCF Done:  E(UB3LYP) =  -837.923543188     A.U. after   16 cycles
 SCF Done:  E(UB3LYP) =  -837.926168017     A.U. after   12 cycles
 SCF Done:  E(UB3LYP) =  -837.924711057     A.U. after   17 cycles
 SCF Done:  E(UB3LYP) =  -837.927602227     A.U. after   12 cycles
 SCF Done:  E(UB3LYP) =  -837.927685125     A.U. after   14 cycles
 SCF Done:  E(UB3LYP) =  -837.927778364     A.U. after   15 cycles
 SCF Done:  E(UB3LYP) =  -837.927935744     A.U. after   13 cycles
 SCF Done:  E(UB3LYP) =  -837.927935290     A.U. after   12 cycles
 SCF Done:  E(UB3LYP) =  -837.927947074     A.U. after   13 cycles
 SCF Done:  E(UB3LYP) =  -837.927950094     A.U. after   12 cycles
 SCF Done:  E(UB3LYP) =  -837.927951263     A.U. after   14 cycles
 SCF Done:  E(UB3LYP) =  -837.927950868     A.U. after   12 cycles
 SCF Done:  E(UB3LYP) =  -837.927950821     A.U. after   11 cycles
 Optimization completed.
    -- Stationary point found.
 Normal termination of Gaussian 09 at Mon Jul 12 14:37:00 2021.

 ----------------------------------------------------------------------
 #N Geom=AllCheck Guess=TCheck SCRF=Check GenChk UB3LYP/6-31+G(d,p) Fre
 q
 ----------------------------------------------------------------------

 Structure from the checkpoint file:  "product_cycloaddition_m062x_toluene_2.chk"
 -------------------
 Title Card Required
 -------------------
 Charge =  0 Multiplicity = 3

                         Standard orientation:
 ---------------------------------------------------------------------
 Center     Atomic      Atomic             Coordinates (Angstroms)
 Number     Number       Type             X           Y           Z
 ---------------------------------------------------------------------
      1          6           0        0.343123    0.699370   -0.589894
      2          6           0        0.885745    1.870251    0.307905
      3          6           0       -1.410527    1.958783    0.567914
      4          6           0       -1.091896    1.199170   -0.694620
      5          1           0        0.844961    0.665711   -1.556256
      6          1           0       -1.841660    0.712085   -1.300275
      7          6           0       -0.168668    1.894182    1.458702
      8          1           0       -0.053756    2.781403    2.088667
      9          1           0       -0.144926    1.001815    2.092367
     10          6           0        0.445402    3.048768   -0.528736
     11          1           0        0.899240    4.032230   -0.540302
     12          6           0       -0.983422    2.734096   -0.700514
     13          1           0       -1.689799    3.332649   -1.262172
     14          1           0        1.933444    1.799990    0.590396
     15          1           0       -2.420565    2.011427    0.956272
     16          7           0       -0.328782   -1.249863    0.857440
     17          7           0        0.543398   -0.637906    0.054584
     18          6           0       -1.668915   -1.314351    0.495966
     19          6           0        1.863599   -1.155365    0.163469
     20          8           0        2.156889   -2.152559    0.784632
     21          8           0       -2.577479   -1.211486    1.301649
     22          8           0        2.718922   -0.403104   -0.546856
     23          8           0       -1.837058   -1.661393   -0.803544
     24          6           0       -3.202623   -1.893733   -1.209377
     25          1           0       -3.145493   -2.185706   -2.257352
     26          1           0       -3.646623   -2.691360   -0.609415
     27          1           0       -3.794255   -0.981549   -1.093358
     28          6           0        4.089510   -0.865084   -0.552852
     29          1           0        4.627110   -0.148856   -1.172062
     30          1           0        4.485919   -0.875127    0.464618
     31          1           0        4.145950   -1.868519   -0.980130
 ---------------------------------------------------------------------

 SCF Done:  E(UB3LYP) =  -837.927950821     A.U. after    1 cycles

 The electronic state is 3-A.
 Alpha  occ. eigenvalues --  -19.22502 -19.21148 -19.16262 -19.15138 -14.45292
 Alpha  occ. eigenvalues --  -14.39845 -10.36587 -10.35092 -10.25682 -10.25573
 Alpha  occ. eigenvalues --  -10.24898 -10.21381 -10.21267 -10.21169 -10.21132
 Alpha  occ. eigenvalues --  -10.20777 -10.19807  -1.14484  -1.12525  -1.05722
 Alpha  occ. eigenvalues --   -1.03602  -1.03025  -0.93907  -0.85734  -0.77272
 Alpha  occ. eigenvalues --   -0.75115  -0.74600  -0.72343  -0.71312  -0.62677
 Alpha  occ. eigenvalues --   -0.61048  -0.57603  -0.57015  -0.56253  -0.55702
 Alpha  occ. eigenvalues --   -0.55236  -0.52305  -0.51707  -0.49454  -0.49218
 Alpha  occ. eigenvalues --   -0.49067  -0.47560  -0.45392  -0.44797  -0.44142
 Alpha  occ. eigenvalues --   -0.43912  -0.42141  -0.41019  -0.39473  -0.39268
 Alpha  occ. eigenvalues --   -0.38498  -0.37672  -0.37497  -0.36110  -0.35512
 Alpha  occ. eigenvalues --   -0.33025  -0.32514  -0.31855  -0.31030  -0.30521
 Alpha  occ. eigenvalues --   -0.30042  -0.29163  -0.23675  -0.19688
 Alpha virt. eigenvalues --   -0.00402   0.00084   0.00774   0.01363   0.01583
 Alpha virt. eigenvalues --    0.02256   0.02464   0.02795   0.03632   0.03805
 Alpha virt. eigenvalues --    0.04382   0.04516   0.05099   0.05881   0.06487

  Beta  occ. eigenvalues --  -19.22448 -19.21063 -19.16136 -19.15014 -14.44712
  Beta  occ. eigenvalues --  -14.38563 -10.36587 -10.35108 -10.25684 -10.25519
  Beta  occ. eigenvalues --  -10.24890 -10.21288 -10.21286 -10.21248 -10.20948
  Beta  occ. eigenvalues --  -10.19715 -10.19489  -1.14173  -1.12206  -1.05066
  Beta  occ. eigenvalues --   -1.02959  -1.02365  -0.93276  -0.84068  -0.76758
  Beta  occ. eigenvalues --   -0.74840  -0.74200  -0.71103  -0.70589  -0.62133
  Beta  occ. eigenvalues --   -0.60482  -0.57243  -0.56611  -0.55937  -0.55149
  Beta  occ. eigenvalues --   -0.54609  -0.51620  -0.50914  -0.49074  -0.48971
  Beta  occ. eigenvalues --   -0.48720  -0.47024  -0.45211  -0.44522  -0.43560
  Beta  occ. eigenvalues --   -0.43091  -0.41434  -0.40462  -0.39164  -0.38415
  Beta  occ. eigenvalues --   -0.38072  -0.37472  -0.36442  -0.35471  -0.33792
  Beta  occ. eigenvalues --   -0.32366  -0.31866  -0.31393  -0.30373  -0.29876
  Beta  occ. eigenvalues --   -0.29373  -0.28010
  Beta virt. eigenvalues --   -0.12324  -0.06789  -0.00328   0.00463   0.01044
  Beta virt. eigenvalues --    0.01496   0.02268   0.02569   0.02686   0.03006
  Beta virt. eigenvalues --    0.03715   0.03836   0.04490   0.04554   0.05316

 Mulliken charges and spin densities:
               1          2
     1  C   -0.326827   0.078188
     2  C    0.196605  -0.097569
     3  C   -0.040376   0.102305
     4  C   -0.197737  -0.004081
     5  H    0.181135   0.003430
     6  H    0.165154  -0.001208
     7  C   -0.399923   0.042935
     8  H    0.152796   0.000507
     9  H    0.171414  -0.000072
    10  C   -0.237470   1.079224
    11  H    0.135545  -0.036965
    12  C   -0.164388  -0.134297
    13  H    0.143972   0.001802
    14  H    0.147704   0.000966
    15  H    0.151033  -0.000909
    16  N   -0.501584   0.618214
    17  N    0.104887   0.211783
    18  C    0.276160  -0.012107
    19  C    0.735977   0.006420
    20  O   -0.467404   0.050591
    21  O   -0.410679   0.043041
    22  O   -0.229924   0.019820
    23  O   -0.303427   0.020417
    24  C   -0.121505   0.003588
    25  H    0.157229   0.001389
    26  H    0.170776   0.000933
    27  H    0.160989   0.000713
    28  C   -0.158555  -0.001430
    29  H    0.164678   0.000015
    30  H    0.171400   0.001103
    31  H    0.172344   0.001253
 Sum of Mulliken charges =   0.00000   2.00000

 Dipole moment (field-independent basis, Debye):
    X=              1.6598    Y=              4.1352    Z=             -4.7742  Tot=              6.5306
 Quadrupole moment (field-independent basis, Debye-Ang):
   XX=            -83.1321   YY=           -102.4981   ZZ=           -103.6581
   XY=              2.2777   XZ=              6.4843   YZ=             10.4757

  Exact polarizability: 207.751   7.026 172.350  -7.590  -8.866 153.290
 Approx polarizability: 235.364   6.527 206.440 -15.612 -15.467 204.528

                      1                      2                      3
                      A                      A                      A
 Frequencies --     23.1826                59.1978                64.0962
 Red. masses --      4.2713                 4.7564                 3.9690
 Frc consts  --      0.0014                 0.0098                 0.0096
 IR Inten    --      0.8567                 1.1993                 3.6151

                      4                      5                      6
                      A                      A                      A
 Frequencies --     84.6732                97.2015               122.5054
 Red. masses --      4.5715                 3.4644                 3.5344
 Frc consts  --      0.0193                 0.0193                 0.0313
 IR Inten    --      5.9887                 0.4175                 0.8603

                      7                      8                      9
                      A                      A                      A
 Frequencies --    130.0359               146.8880               155.4910
 Red. masses --      1.6832                 1.2252                 2.1801
 Frc consts  --      0.0168                 0.0156                 0.0311
 IR Inten    --      1.7159                 0.3966                 1.2407

                     10                     11                     12
                      A                      A                      A
 Frequencies --    181.3685               210.5797               233.4582
 Red. masses --      4.0127                 4.9874                 4.1221
 Frc consts  --      0.0778                 0.1303                 0.1324
 IR Inten    --      6.1376                 1.4655                 6.0767

                     13                     14                     15
                      A                      A                      A
 Frequencies --    301.6883               310.7960               315.6507
 Red. masses --      3.8107                 1.9316                 2.1768
 Frc consts  --      0.2043                 0.1099                 0.1278
 IR Inten    --     16.6150                 5.6247                40.2682

                     16                     17                     18
                      A                      A                      A
 Frequencies --    342.0880               350.1975               411.0264
 Red. masses --      5.3801                 5.9200                 6.5219
 Frc consts  --      0.3710                 0.4278                 0.6492
 IR Inten    --     17.0726                 0.9292                 0.3039

                     19                     20                     21
                      A                      A                      A
 Frequencies --    453.3564               467.8701               592.9419
 Red. masses --      7.3567                 2.3414                 8.1828
 Frc consts  --      0.8909                 0.3020                 1.6950
 IR Inten    --      5.2492                 1.1708                18.5565

                     22                     23                     24
                      A                      A                      A
 Frequencies --    607.7223               656.1552               674.6014
 Red. masses --      4.4665                 6.4373                 5.8108
 Frc consts  --      0.9719                 1.6329                 1.5580
 IR Inten    --     20.3700                 1.2007                 0.5892

                     25                     26                     27
                      A                      A                      A
 Frequencies --    682.2227               745.1604               759.9122
 Red. masses --      5.7909                 8.2646                 7.4716
 Frc consts  --      1.5880                 2.7038                 2.5421
 IR Inten    --      2.0270                 7.6470                20.8339

                     28                     29                     30
                      A                      A                      A
 Frequencies --    777.2587               789.2770               802.0321
 Red. masses --      2.5488                 4.3764                 6.0849
 Frc consts  --      0.9072                 1.6063                 2.3061
 IR Inten    --     33.4634                10.7332                53.2954

                     31                     32                     33
                      A                      A                      A
 Frequencies --    833.7891               857.5268               878.1123
 Red. masses --      2.5137                 4.3883                 2.3460
 Frc consts  --      1.0296                 1.9013                 1.0658
 IR Inten    --     20.9229                58.2029                 6.8768

                     34                     35                     36
                      A                      A                      A
 Frequencies --    890.3833               904.4781               911.2676
 Red. masses --      2.3388                 3.6090                 2.4816
 Frc consts  --      1.0925                 1.7396                 1.2142
 IR Inten    --      1.4572                 1.7560                 5.9342

                     37                     38                     39
                      A                      A                      A
 Frequencies --    943.7447               969.3036               984.3549
 Red. masses --      1.9953                 2.1384                 2.3271
 Frc consts  --      1.0470                 1.1837                 1.3285
 IR Inten    --      0.9774                16.7175                 0.8743

                     40                     41                     42
                      A                      A                      A
 Frequencies --    992.8353              1006.9621              1035.8210
 Red. masses --      2.1439                 2.5204                 1.7595
 Frc consts  --      1.2451                 1.5057                 1.1123
 IR Inten    --     15.3759                17.9394                 2.5789

                     43                     44                     45
                      A                      A                      A
 Frequencies --   1051.5071              1064.1648              1067.6411
 Red. masses --      1.7000                 1.3081                 5.2469
 Frc consts  --      1.1075                 0.8728                 3.5238
 IR Inten    --      1.9823                17.8882               107.6247

                     46                     47                     48
                      A                      A                      A
 Frequencies --   1088.6860              1121.1800              1144.4479
 Red. masses --      1.4221                 3.6029                 1.2727
 Frc consts  --      0.9931                 2.6684                 0.9822
 IR Inten    --     54.1951                27.2415                 5.1614

                     49                     50                     51
                      A                      A                      A
 Frequencies --   1174.5097              1176.4935              1177.8324
 Red. masses --      1.2775                 1.2709                 1.5940
 Frc consts  --      1.0383                 1.0364                 1.3028
 IR Inten    --      1.8629                 6.9158                 8.9598

                     52                     53                     54
                      A                      A                      A
 Frequencies --   1182.2957              1204.5982              1215.5348
 Red. masses --      6.7846                 1.4889                 1.5615
 Frc consts  --      5.5876                 1.2730                 1.3593
 IR Inten    --    671.6836                21.7634                11.4351

                     55                     56                     57
                      A                      A                      A
 Frequencies --   1243.8094              1252.8878              1261.4954
 Red. masses --      1.7161                 2.3518                 1.4445
 Frc consts  --      1.5642                 2.1751                 1.3544
 IR Inten    --     10.5426               507.6596                21.1048

                     58                     59                     60
                      A                      A                      A
 Frequencies --   1267.2141              1290.3736              1323.4092
 Red. masses --      2.6442                 2.0165                 1.6863
 Frc consts  --      2.5018                 1.9782                 1.7401
 IR Inten    --    444.1575                 4.9215                36.7867

                     61                     62                     63
                      A                      A                      A
 Frequencies --   1338.6126              1355.1358              1369.1463
 Red. masses --      1.8318                 1.9035                 2.2682
 Frc consts  --      1.9339                 2.0595                 2.5051
 IR Inten    --      6.3278                42.2738                 6.6286

                     64                     65                     66
                      A                      A                      A
 Frequencies --   1440.0171              1472.5212              1475.0571
 Red. masses --      2.7650                 1.2523                 1.1887
 Frc consts  --      3.3782                 1.5999                 1.5238
 IR Inten    --     36.9573                32.4114                24.8956

                     67                     68                     69
                      A                      A                      A
 Frequencies --   1480.8434              1482.9151              1493.1531
 Red. masses --      1.0451                 1.0444                 1.0536
 Frc consts  --      1.3503                 1.3531                 1.3840
 IR Inten    --     10.7414                11.9948                12.0892

                     70                     71                     72
                      A                      A                      A
 Frequencies --   1495.9250              1504.3501              1737.3610
 Red. masses --      1.0618                 1.0942                11.6610
 Frc consts  --      1.4000                 1.4590                20.7380
 IR Inten    --      8.3229                 4.9235               537.7218

                     73                     74                     75
                      A                      A                      A
 Frequencies --   1789.9125              3059.1591              3063.7137
 Red. masses --     11.7524                 1.0301                 1.0584
 Frc consts  --     22.1840                 5.6796                 5.8534
 IR Inten    --    500.5098                40.9318                37.3258

                     76                     77                     78
                      A                      A                      A
 Frequencies --   3068.7314              3113.4901              3140.0443
 Red. masses --      1.0292                 1.1076                 1.1069
 Frc consts  --      5.7105                 6.3261                 6.4302
 IR Inten    --     39.0426                24.8090                22.8078

                     79                     80                     81
                      A                      A                      A
 Frequencies --   3141.1363              3153.6894              3174.9143
 Red. masses --      1.0869                 1.1083                 1.0902
 Frc consts  --      6.3186                 6.4948                 6.4744
 IR Inten    --      7.8495                15.7510                16.0150

                     82                     83                     84
                      A                      A                      A
 Frequencies --   3176.5931              3186.1239              3215.4420
 Red. masses --      1.1071                 1.1076                 1.0916
 Frc consts  --      6.5818                 6.6249                 6.6496
 IR Inten    --     13.1480                11.6341                 2.8413

                     85                     86                     87
                      A                      A                      A
 Frequencies --   3219.9944              3230.8299              3256.6130
 Red. masses --      1.0912                 1.0964                 1.0932
 Frc consts  --      6.6658                 6.7429                 6.8311
 IR Inten    --     13.8424                18.4718                 4.6983

 - Thermochemistry -
 -------------------
 Temperature   298.150 Kelvin.  Pressure   1.00000 Atm.
 Atom     1 has atomic number  6 and mass  12.00000

 Molecular mass:   238.09536 amu.
 Principal axes and moments of inertia in atomic units:
                           1         2         3
     Eigenvalues --  2999.025093917.778155762.37865
           X            0.99987   0.01335   0.00933
           Y           -0.01355   0.99966   0.02243
           Z           -0.00903  -0.02255   0.99970
 This molecule is an asymmetric top.
 Rotational symmetry number  1.
 Warning -- assumption of classical behavior for rotation
           may cause significant error
 Rotational temperatures (Kelvin)      0.02888     0.02211     0.01503
 Rotational constants (GHZ):           0.60178     0.46065     0.31319
 Zero-point vibrational energy     644193.4 (Joules/Mol)
                                  153.96591 (Kcal/Mol)
 Warning -- explicit consideration of  22 degrees of freedom as
           vibrations may cause significant error
 Vibrational temperatures:     33.35    85.17    92.22   121.83   139.85
          (Kelvin)            176.26   187.09   211.34   223.72   260.95
                              302.98   335.89   434.06   447.17   454.15
                              492.19   503.86   591.37   652.28   673.16
                              853.11   874.38   944.06   970.60   981.57
                             1072.12  1093.34  1118.30  1135.59  1153.94
                             1199.64  1233.79  1263.41  1281.06  1301.34
                             1311.11  1357.84  1394.61  1416.27  1428.47
                             1448.79  1490.31  1512.88  1531.09  1536.10
                             1566.37  1613.13  1646.60  1689.86  1692.71
                             1694.64  1701.06  1733.15  1748.88  1789.56
                             1802.62  1815.01  1823.24  1856.56  1904.09
                             1925.96  1949.74  1969.89  2071.86  2118.63
                             2122.28  2130.60  2133.58  2148.31  2152.30
                             2164.42  2499.67  2575.28  4401.44  4408.00
                             4415.21  4479.61  4517.82  4519.39  4537.45
                             4567.99  4570.40  4584.12  4626.30  4632.85
                             4648.44  4685.53

 Zero-point correction=                           0.245360 (Hartree/Particle)
 Thermal correction to Energy=                    0.261396
 Thermal correction to Enthalpy=                  0.262340
 Thermal correction to Gibbs Free Energy=         0.199837
 Sum of electronic and zero-point Energies=           -837.682591
 Sum of electronic and thermal Energies=              -837.666555
 Sum of electronic and thermal Enthalpies=            -837.665610
 Sum of electronic and thermal Free Energies=         -837.728114

                     E (Thermal)             CV                S
                      KCal/Mol        Cal/Mol-Kelvin    Cal/Mol-Kelvin
 Total                  164.029             59.971            131.550
 Electronic               0.000              0.000              2.183
 Translational            0.889              2.981             42.304
 Rotational               0.889              2.981             32.582
 Vibrational            162.251             54.009             54.481
 Vibration     1          0.593              1.985              6.341
 Vibration     2          0.597              1.974              4.484
 Vibration     3          0.597              1.971              4.327
 Vibration     4          0.601              1.960              3.780
 Vibration     5          0.603              1.951              3.510
 Vibration     6          0.610              1.930              3.060
 Vibration     7          0.612              1.923              2.946
 Vibration     8          0.617              1.906              2.712
 Vibration     9          0.620              1.897              2.604
 Vibration    10          0.630              1.865              2.314
 Vibration    11          0.643              1.825              2.039
 Vibration    12          0.654              1.790              1.852
 Vibration    13          0.694              1.671              1.408
 Vibration    14          0.700              1.653              1.358
 Vibration    15          0.703              1.644              1.333
 Vibration    16          0.721              1.591              1.202
 Vibration    17          0.727              1.575              1.165
 Vibration    18          0.775              1.446              0.923
 Vibration    19          0.812              1.353              0.786
 Vibration    20          0.825              1.321              0.744
 Vibration    21          0.950              1.047              0.462
 Vibration    22          0.967              1.015              0.437

 Normal termination of Gaussian 09 at Mon Jul 12 15:36:11 2021.
