 Gaussian 09, Revision D.01,
 Gaussian 09:  ES64L-G09RevD.01 24-Apr-2013

 ----------------------------------------------------------------------
 # freq b3lyp/6-31+g(d,p) scrf=(cpcm,solvent=toluene) geom=connectivity
  empiricaldispersion=gd3
 ----------------------------------------------------------------------

 -------------------
 Title Card Required
 -------------------
 Symbolic Z-matrix:
 Charge =  0 Multiplicity = 1

                         Standard orientation:
 ---------------------------------------------------------------------
 Center     Atomic      Atomic             Coordinates (Angstroms)
 Number     Number       Type             X           Y           Z
 ---------------------------------------------------------------------
      1          6           0        0.484586    0.832165   -0.862195
      2          6           0        1.662329    1.423933   -0.051734
      3          6           0       -0.232954    2.321558    0.914391
      4          6           0       -0.700980    1.645225   -0.352864
      5          1           0        0.581062    0.496277   -1.883979
      6          1           0       -1.729275    1.459775   -0.625166
      7          6           0        1.091933    1.702663    1.344078
      8          1           0        1.725715    2.402507    1.897079
      9          1           0        0.948756    0.789288    1.924646
     10          6           0        1.263014    2.530094   -0.922290
     11          1           0        1.705894    2.776238   -1.878769
     12          6           0       -0.031884    3.045254   -0.395108
     13          1           0       -0.528606    3.950497   -0.716536
     14          1           0        2.628730    0.951101   -0.190824
     15          1           0       -0.971134    2.674434    1.623791
     16          7           0       -0.772917   -0.900905    0.865428
     17          7           0        0.044251   -1.027600   -0.145095
     18          6           0       -2.125924   -0.862779    0.503740
     19          6           0        1.340826   -1.474458    0.256504
     20          8           0        1.692152   -1.821213    1.366077
     21          8           0       -3.002703   -0.719033    1.345885
     22          8           0        2.126616   -1.541326   -0.839179
     23          8           0       -2.397167   -1.024059   -0.817817
     24          6           0       -3.793761   -1.020464   -1.166154
     25          1           0       -3.823447   -1.171225   -2.245451
     26          1           0       -4.321123   -1.827767   -0.651649
     27          1           0       -4.255411   -0.065435   -0.899071
     28          6           0        3.452098   -2.063509   -0.618545
     29          1           0        3.995325   -1.443564    0.099766
     30          1           0        3.399123   -3.087814   -0.241704
     31          1           0        3.938182   -2.037830   -1.593135
 ---------------------------------------------------------------------

 SCF Done:  E(RB3LYP) =  -837.882051818     A.U. after   18 cycles

 The electronic state is 1-A.
 Alpha  occ. eigenvalues --  -19.21035 -19.19556 -19.15441 -19.13565 -14.40065
 Alpha  occ. eigenvalues --  -14.36455 -10.34561 -10.32864 -10.25970 -10.25488
 Alpha  occ. eigenvalues --  -10.24928 -10.24222 -10.23930 -10.23424 -10.23348
 Alpha  occ. eigenvalues --  -10.22483 -10.20645  -1.12519  -1.10673  -1.03544
 Alpha  occ. eigenvalues --   -1.01272  -1.00224  -0.97536  -0.81530  -0.79766
 Alpha  occ. eigenvalues --   -0.75603  -0.73133  -0.71009  -0.69805  -0.60304
 Alpha  occ. eigenvalues --   -0.59488  -0.58009  -0.57290  -0.56609  -0.55574
 Alpha  occ. eigenvalues --   -0.53689  -0.50312  -0.49603  -0.48659  -0.47936
 Alpha  occ. eigenvalues --   -0.47336  -0.46599  -0.45908  -0.44625  -0.43006
 Alpha  occ. eigenvalues --   -0.42583  -0.42263  -0.41090  -0.40390  -0.40046
 Alpha  occ. eigenvalues --   -0.38091  -0.37314  -0.36460  -0.36108  -0.35652
 Alpha  occ. eigenvalues --   -0.32377  -0.32019  -0.31264  -0.30369  -0.29774
 Alpha  occ. eigenvalues --   -0.28334  -0.24929  -0.20740
 Alpha virt. eigenvalues --   -0.11487  -0.01741  -0.00355   0.00844   0.01598
 Alpha virt. eigenvalues --    0.01708   0.02360   0.02727   0.03185   0.03496
 Alpha virt. eigenvalues --    0.03992   0.04159   0.04278   0.05134   0.06054

 Mulliken charges:
               1
     1  C   -0.316369
     2  C    0.039200
     3  C   -0.081484
     4  C    0.123682
     5  H    0.197813
     6  H    0.177365
     7  C   -0.310588
     8  H    0.156985
     9  H    0.201053
    10  C   -0.155618
    11  H    0.175673
    12  C   -0.268833
    13  H    0.160743
    14  H    0.171487
    15  H    0.164336
    16  N   -0.664564
    17  N   -0.033040
    18  C    0.413638
    19  C    0.526369
    20  O   -0.405005
    21  O   -0.449627
    22  O   -0.183305
    23  O   -0.318951
    24  C   -0.141796
    25  H    0.151517
    26  H    0.164137
    27  H    0.154718
    28  C   -0.137506
    29  H    0.160900
    30  H    0.169270
    31  H    0.157800
 Sum of Mulliken charges =   0.00000

 Dipole moment (field-independent basis, Debye):
    X=              4.0435    Y=              6.3956    Z=             -6.4978  Tot=              9.9737
 Quadrupole moment (field-independent basis, Debye-Ang):
   XX=            -88.2366   YY=            -89.1073   ZZ=           -106.2964
   XY=             -2.0453   XZ=              5.1968   YZ=              4.7058

  Exact polarizability: 222.687  37.951 256.404 -18.877 -30.289 168.365
 Approx polarizability: 299.286 114.084 448.561 -61.454-102.182 260.104

 ******    1 imaginary frequencies (negative Signs) ******

                      1                      2                      3
                      A                      A                      A
 Frequencies --   -492.6832                33.7086                44.2648
 Red. masses --     10.3018                 3.7756                 7.1843
 Frc consts  --      1.4733                 0.0025                 0.0083
 IR Inten    --    851.6154                 0.5187                 0.1387

                      4                      5                      6
                      A                      A                      A
 Frequencies --     54.3120                73.8583                87.9926
 Red. masses --      4.6446                 4.2535                 3.5774
 Frc consts  --      0.0081                 0.0137                 0.0163
 IR Inten    --      3.9342                 0.5943                 2.9134

                      7                      8                      9
                      A                      A                      A
 Frequencies --    105.8578               140.8910               148.1113
 Red. masses --      4.0533                 1.9696                 1.2873
 Frc consts  --      0.0268                 0.0230                 0.0166
 IR Inten    --      2.3005                 3.4915                 2.5977

                     10                     11                     12
                      A                      A                      A
 Frequencies --    164.6407               180.5210               186.6788
 Red. masses --      1.9646                 2.6626                 3.8237
 Frc consts  --      0.0314                 0.0511                 0.0785
 IR Inten    --      2.1911                 0.8842                 4.2925

                     13                     14                     15
                      A                      A                      A
 Frequencies --    202.3737               256.4807               275.4297
 Red. masses --      4.2082                 5.0646                 6.4403
 Frc consts  --      0.1015                 0.1963                 0.2879
 IR Inten    --     10.0849                 2.8715                 1.6616

                     16                     17                     18
                      A                      A                      A
 Frequencies --    323.7510               331.2075               417.0226
 Red. masses --      5.6945                 5.1214                 7.6372
 Frc consts  --      0.3517                 0.3310                 0.7825
 IR Inten    --     17.4749                 8.9970                32.3922

                     19                     20                     21
                      A                      A                      A
 Frequencies --    435.6426               443.2614               515.0778
 Red. masses --      5.8056                 2.0845                 2.9837
 Frc consts  --      0.6492                 0.2413                 0.4664
 IR Inten    --     37.4519                 6.7410                43.5440

                     22                     23                     24
                      A                      A                      A
 Frequencies --    595.8449               639.2159               661.5748
 Red. masses --      9.7057                 4.5947                 6.2940
 Frc consts  --      2.0302                 1.1061                 1.6231
 IR Inten    --      9.0749                 6.7003                55.0493

                     25                     26                     27
                      A                      A                      A
 Frequencies --    692.0528               732.2962               756.7903
 Red. masses --      7.0961                 3.8113                 4.2647
 Frc consts  --      2.0024                 1.2042                 1.4391
 IR Inten    --     26.4720                76.1607                70.0629

                     28                     29                     30
                      A                      A                      A
 Frequencies --    769.3543               784.2516               795.4520
 Red. masses --      3.4130                 2.2856                 4.2658
 Frc consts  --      1.1903                 0.8282                 1.5903
 IR Inten    --     11.2837                12.7821                38.8294

                     31                     32                     33
                      A                      A                      A
 Frequencies --    800.4874               808.7685               819.6984
 Red. masses --      2.9197                 2.4153                 1.9309
 Frc consts  --      1.1023                 0.9308                 0.7644
 IR Inten    --      4.7715                34.8906                 2.3496

                     34                     35                     36
                      A                      A                      A
 Frequencies --    866.3049               885.0749               910.0455
 Red. masses --      2.3827                 5.4882                 1.7050
 Frc consts  --      1.0536                 2.5330                 0.8320
 IR Inten    --    261.3768                21.3828                 5.7379

                     37                     38                     39
                      A                      A                      A
 Frequencies --    924.4299               954.9153               959.4756
 Red. masses --      2.0330                 5.5866                 1.6729
 Frc consts  --      1.0236                 3.0014                 0.9074
 IR Inten    --      2.7806                43.3483                 9.9950

                     40                     41                     42
                      A                      A                      A
 Frequencies --    974.2216              1001.9389              1025.5166
 Red. masses --      1.5436                 1.5715                 1.8898
 Frc consts  --      0.8632                 0.9295                 1.1710
 IR Inten    --     45.6220                 9.0597                28.8064

                     43                     44                     45
                      A                      A                      A
 Frequencies --   1042.0097              1052.4153              1059.6702
 Red. masses --      1.3977                 7.0012                 1.2402
 Frc consts  --      0.8941                 4.5688                 0.8205
 IR Inten    --      1.6630                 6.8489                 6.3906

                     46                     47                     48
                      A                      A                      A
 Frequencies --   1070.0394              1074.4336              1075.6676
 Red. masses --      1.6087                 1.4648                 4.8237
 Frc consts  --      1.0852                 0.9963                 3.2884
 IR Inten    --      2.5887                18.4457               175.2661

                     49                     50                     51
                      A                      A                      A
 Frequencies --   1116.5754              1174.4177              1176.2767
 Red. masses --      1.4070                 1.2740                 1.2717
 Frc consts  --      1.0335                 1.0353                 1.0367
 IR Inten    --     47.1955                 1.3578                 2.0057

                     52                     53                     54
                      A                      A                      A
 Frequencies --   1188.6280              1202.6995              1207.7732
 Red. masses --      1.3005                 1.5134                 1.9013
 Frc consts  --      1.0825                 1.2898                 1.6341
 IR Inten    --    131.1894               128.9726               222.0111

                     55                     56                     57
                      A                      A                      A
 Frequencies --   1215.9012              1240.9273              1252.3393
 Red. masses --      2.6392                 2.1730                 2.9751
 Frc consts  --      2.2989                 1.9715                 2.7492
 IR Inten    --    529.9340               468.3320               631.0257

                     58                     59                     60
                      A                      A                      A
 Frequencies --   1263.4345              1285.2658              1296.9491
 Red. masses --      1.5565                 1.9266                 1.8945
 Frc consts  --      1.4639                 1.8751                 1.8775
 IR Inten    --     16.4856                 9.6755                80.8199

                     61                     62                     63
                      A                      A                      A
 Frequencies --   1327.5529              1362.2886              1368.8837
 Red. masses --      4.5384                 5.0304                 2.2666
 Frc consts  --      4.7125                 5.5004                 2.5024
 IR Inten    --    207.1186               305.9242                43.5388

                     64                     65                     66
                      A                      A                      A
 Frequencies --   1401.9920              1470.0875              1473.7428
 Red. masses --      2.2947                 1.1731                 1.1708
 Frc consts  --      2.6574                 1.4937                 1.4982
 IR Inten    --     11.2101                28.1494                24.8466

                     67                     68                     69
                      A                      A                      A
 Frequencies --   1481.0361              1482.7845              1495.3867
 Red. masses --      1.0453                 1.0454                 1.0546
 Frc consts  --      1.3510                 1.3542                 1.3895
 IR Inten    --      8.9456                10.3593                12.2784

                     70                     71                     72
                      A                      A                      A
 Frequencies --   1496.7842              1497.3598              1716.3955
 Red. masses --      1.0540                 1.1046                11.3824
 Frc consts  --      1.3912                 1.4592                19.7570
 IR Inten    --     13.7575                 6.6930               787.9235

                     73                     74                     75
                      A                      A                      A
 Frequencies --   1755.2772              3052.7444              3058.8016
 Red. masses --     11.5979                 1.0301                 1.0302
 Frc consts  --     21.0534                 5.6559                 5.6792
 IR Inten    --    482.8244                57.4747                41.4953

                     76                     77                     78
                      A                      A                      A
 Frequencies --   3078.7461              3130.4104              3137.4857
 Red. masses --      1.0627                 1.1066                 1.1072
 Frc consts  --      5.9350                 6.3890                 6.4213
 IR Inten    --     33.2915                27.5874                22.8081

                     79                     80                     81
                      A                      A                      A
 Frequencies --   3147.5715              3164.9906              3175.3648
 Red. masses --      1.1045                 1.1067                 1.1067
 Frc consts  --      6.4471                 6.5314                 6.5743
 IR Inten    --      1.5433                19.3071                15.1631

                     82                     83                     84
                      A                      A                      A
 Frequencies --   3208.0011              3227.7358              3241.3459
 Red. masses --      1.0917                 1.0930                 1.0922
 Frc consts  --      6.6198                 6.7092                 6.7611
 IR Inten    --      4.8290                 1.1471                10.1159

                     85                     86                     87
                      A                      A                      A
 Frequencies --   3254.0882              3264.6803              3274.4941
 Red. masses --      1.0965                 1.0929                 1.0942
 Frc consts  --      6.8412                 6.8632                 6.9122
 IR Inten    --      5.4665                 1.1437                 3.6228

 - Thermochemistry -
 -------------------
 Temperature   298.150 Kelvin.  Pressure   1.00000 Atm.
 Atom     1 has atomic number  6 and mass  12.00000

 Molecular mass:   238.09536 amu.
 Principal axes and moments of inertia in atomic units:
                           1         2         3
     Eigenvalues --  3041.667964075.193495708.06743
           X            0.99969  -0.02229   0.01133
           Y            0.02210   0.99961   0.01706
           Z           -0.01170  -0.01681   0.99979
 This molecule is an asymmetric top.
 Rotational symmetry number  1.
 Warning -- assumption of classical behavior for rotation
           may cause significant error
 Rotational temperatures (Kelvin)      0.02848     0.02125     0.01517
 Rotational constants (GHZ):           0.59334     0.44286     0.31617
    1 imaginary frequencies ignored.
 Zero-point vibrational energy     637132.6 (Joules/Mol)
                                  152.27834 (Kcal/Mol)
 Warning -- explicit consideration of  21 degrees of freedom as
           vibrations may cause significant error
 Vibrational temperatures:     48.50    63.69    78.14   106.27   126.60
          (Kelvin)            152.31   202.71   213.10   236.88   259.73
                              268.59   291.17   369.02   396.28   465.80
                              476.53   600.00   626.79   637.75   741.08
                              857.29   919.69   951.86   995.71  1053.61
                             1088.85  1106.93  1128.36  1144.48  1151.72
                             1163.64  1179.36  1246.42  1273.42  1309.35
                             1330.05  1373.91  1380.47  1401.69  1441.56
                             1475.49  1499.22  1514.19  1524.63  1539.55
                             1545.87  1547.64  1606.50  1689.72  1692.40
                             1710.17  1730.41  1737.71  1749.41  1785.42
                             1801.83  1817.80  1849.21  1866.02  1910.05
                             1960.03  1969.52  2017.15  2115.13  2120.38
                             2130.88  2133.39  2151.53  2153.54  2154.36
                             2469.51  2525.45  4392.21  4400.93  4429.62
                             4503.96  4514.14  4528.65  4553.71  4568.64
                             4615.59  4643.99  4663.57  4681.90  4697.14
                             4711.26

 Zero-point correction=                           0.242671 (Hartree/Particle)
 Thermal correction to Energy=                    0.258796
 Thermal correction to Enthalpy=                  0.259740
 Thermal correction to Gibbs Free Energy=         0.197764
 Sum of electronic and zero-point Energies=           -837.639381
 Sum of electronic and thermal Energies=              -837.623256
 Sum of electronic and thermal Enthalpies=            -837.622312
 Sum of electronic and thermal Free Energies=         -837.684288

                     E (Thermal)             CV                S
                      KCal/Mol        Cal/Mol-Kelvin    Cal/Mol-Kelvin
 Total                  162.397             59.669            130.440
 Electronic               0.000              0.000              0.000
 Translational            0.889              2.981             42.304
 Rotational               0.889              2.981             32.626
 Vibrational            160.619             53.707             55.511
 Vibration     1          0.594              1.983              5.598
 Vibration     2          0.595              1.980              5.058
 Vibration     3          0.596              1.976              4.654
 Vibration     4          0.599              1.966              4.048
 Vibration     5          0.601              1.958              3.704
 Vibration     6          0.605              1.945              3.343
 Vibration     7          0.615              1.912              2.792
 Vibration     8          0.617              1.905              2.696
 Vibration     9          0.623              1.886              2.496
 Vibration    10          0.629              1.866              2.323
 Vibration    11          0.632              1.858              2.261
 Vibration    12          0.639              1.837              2.111
 Vibration    13          0.666              1.752              1.686
 Vibration    14          0.677              1.719              1.562
 Vibration    15          0.708              1.628              1.291
 Vibration    16          0.714              1.613              1.254
 Vibration    17          0.780              1.433              0.902
 Vibration    18          0.796              1.393              0.840
 Vibration    19          0.803              1.376              0.816
 Vibration    20          0.870              1.217              0.621
 Vibration    21          0.954              1.041              0.457

 Optimization completed.
    -- Stationary point found.
 Normal termination of Gaussian 09 at Thu Sep 17 16:03:46 2020.
