 Gaussian 09, Revision D.01,
 Gaussian 09:  ES64L-G09RevD.01 24-Apr-2013

 ----------------------------------------------------------------------
 # opt freq b3lyp/6-31+g(d,p) scrf=(cpcm,solvent=water) geom=connectivi
 ty empiricaldispersion=gd3
 ----------------------------------------------------------------------

 -------------------
 Title Card Required
 -------------------
 Symbolic Z-matrix:
 Charge =  0 Multiplicity = 1

 SCF Done:  E(RB3LYP) =  -271.474382970     A.U. after   11 cycles
 SCF Done:  E(RB3LYP) =  -271.475020471     A.U. after    9 cycles
 SCF Done:  E(RB3LYP) =  -271.475017487     A.U. after    9 cycles
 Optimization completed.
    -- Stationary point found.
 Normal termination of Gaussian 09 at Thu Sep 17 15:27:42 2020.

 ----------------------------------------------------------------------
 #N Geom=AllCheck Guess=TCheck SCRF=Check GenChk RB3LYP/6-31+G(d,p) Fre
 q
 ----------------------------------------------------------------------

 Structure from the checkpoint file:  "b3lyp_m062x_quadricyclane_cycloaddition_PM6_toluene_water.chk"
 -------------------
 Title Card Required
 -------------------
 Charge =  0 Multiplicity = 1

                         Standard orientation:
 ---------------------------------------------------------------------
 Center     Atomic      Atomic             Coordinates (Angstroms)
 Number     Number       Type             X           Y           Z
 ---------------------------------------------------------------------
      1          6           0        0.759230    0.776008   -0.710348
      2          6           0        0.000000    1.154079    0.551472
      3          6           0        0.000000   -1.154079    0.551472
      4          6           0        0.759547   -0.775766   -0.710111
      5          1           0        1.449833    1.428447   -1.232225
      6          1           0        1.450478   -1.428048   -1.231738
      7          6           0        0.000000    0.000000    1.540675
      8          1           0       -0.891914    0.000016    2.178940
      9          1           0        0.891914   -0.000016    2.178940
     10          6           0       -0.759547    0.775766   -0.710111
     11          1           0       -1.450478    1.428048   -1.231738
     12          6           0       -0.759230   -0.776008   -0.710348
     13          1           0       -1.449833   -1.428447   -1.232225
     14          1           0        0.000000    2.189909    0.876916
     15          1           0        0.000000   -2.189909    0.876916
 ---------------------------------------------------------------------

 SCF Done:  E(RB3LYP) =  -271.475017487     A.U. after    1 cycles

 The electronic state is 1-A.
 Alpha  occ. eigenvalues --  -10.19385 -10.19383 -10.19343 -10.19328 -10.19327
 Alpha  occ. eigenvalues --  -10.19309 -10.18521  -0.94161  -0.78367  -0.73324
 Alpha  occ. eigenvalues --   -0.63608  -0.56739  -0.55258  -0.53534  -0.51988
 Alpha  occ. eigenvalues --   -0.44176  -0.43271  -0.43125  -0.39628  -0.35219
 Alpha  occ. eigenvalues --   -0.34487  -0.31368  -0.28221  -0.27150  -0.22571
 Alpha virt. eigenvalues --    0.00909   0.01948   0.02505   0.02615   0.04334
 Alpha virt. eigenvalues --    0.04540   0.04848   0.06576   0.07136   0.08207
 Alpha virt. eigenvalues --    0.10301   0.10588   0.11293   0.11346   0.11495

 Mulliken charges:
               1
     1  C   -0.152219
     2  C   -0.061687
     3  C   -0.061687
     4  C   -0.152355
     5  H    0.130063
     6  H    0.130056
     7  C   -0.355520
     8  H    0.143304
     9  H    0.143304
    10  C   -0.152355
    11  H    0.130056
    12  C   -0.152219
    13  H    0.130063
    14  H    0.140599
    15  H    0.140599
 Sum of Mulliken charges =   0.00000

 Dipole moment (field-independent basis, Debye):
    X=              0.0000    Y=              0.0000    Z=             -0.0010  Tot=              0.0010
 Quadrupole moment (field-independent basis, Debye-Ang):
   XX=            -42.5502   YY=            -39.5362   ZZ=            -42.2802
   XY=              0.0005   XZ=              0.0000   YZ=              0.0000

  Exact polarizability:  87.405   0.000  89.289   0.000   0.000  94.567
 Approx polarizability: 101.471   0.003  94.112   0.000   0.000 102.879

                      1                      2                      3
                      B                      A                      B
 Frequencies --    393.6183               535.0485               678.5419
 Red. masses --      1.8382                 2.8242                 3.7361
 Frc consts  --      0.1678                 0.4764                 1.0135
 IR Inten    --      1.9454                 0.0000                 0.0171

                      4                      5                      6
                      B                      A                      A
 Frequencies --    699.0870               727.1661               735.4718
 Red. masses --      1.7725                 3.6434                 5.3491
 Frc consts  --      0.5104                 1.1351                 1.7048
 IR Inten    --      3.4368                 0.0000                 0.3261

                      7                      8                      9
                      B                      A                      A
 Frequencies --    766.7580               795.5206               829.4940
 Red. masses --      2.2163                 1.4095                 1.6126
 Frc consts  --      0.7677                 0.5255                 0.6537
 IR Inten    --     83.0471                57.7468                 0.0000

                     10                     11                     12
                      B                      A                      B
 Frequencies --    864.9195               905.9037               909.3626
 Red. masses --      2.1638                 2.0380                 1.3113
 Frc consts  --      0.9537                 0.9854                 0.6389
 IR Inten    --      1.4790                 8.7583                14.1138

                     13                     14                     15
                      B                      A                      B
 Frequencies --    928.1414               955.4201               967.5940
 Red. masses --      1.7738                 2.3738                 2.5508
 Frc consts  --      0.9003                 1.2767                 1.4071
 IR Inten    --     12.4233                 2.6611                 1.3922

                     16                     17                     18
                      A                      B                      A
 Frequencies --    995.4185              1014.2487              1029.7739
 Red. masses --      1.8473                 1.4227                 1.2748
 Frc consts  --      1.0785                 0.8623                 0.7965
 IR Inten    --      0.3282                 0.0250                 0.0000

                     19                     20                     21
                      B                      A                      B
 Frequencies --   1041.8056              1049.0453              1074.1472
 Red. masses --      1.1780                 2.0935                 1.6963
 Frc consts  --      0.7533                 1.3574                 1.1532
 IR Inten    --      0.6970                 0.0000                 0.1305

                     22                     23                     24
                      A                      A                      A
 Frequencies --   1098.2500              1181.7665              1214.1523
 Red. masses --      1.9982                 1.2237                 1.3392
 Frc consts  --      1.4200                 1.0069                 1.1632
 IR Inten    --      2.3653                 0.0000                 0.0000

                     25                     26                     27
                      B                      B                      A
 Frequencies --   1245.8811              1271.2196              1280.2268
 Red. masses --      1.4904                 1.7375                 3.0138
 Frc consts  --      1.3631                 1.6543                 2.9103
 IR Inten    --      0.0107                26.9409                 3.1925

                     28                     29                     30
                      B                      A                      B
 Frequencies --   1283.4309              1365.8311              1389.8859
 Red. masses --      2.0198                 2.2994                 2.7039
 Frc consts  --      1.9602                 2.5273                 3.0775
 IR Inten    --      4.0467                 0.5024                 0.1925

                     31                     32                     33
                      A                      A                      B
 Frequencies --   1483.3888              3036.7185              3079.3307
 Red. masses --      1.1137                 1.0579                 1.1065
 Frc consts  --      1.4439                 5.7477                 6.1819
 IR Inten    --      0.4485                92.8222                58.4510

                     34                     35                     36
                      B                      A                      A
 Frequencies --   3185.0171              3187.8842              3193.4542
 Red. masses --      1.0905                 1.0915                 1.0890
 Frc consts  --      6.5175                 6.5356                 6.5431
 IR Inten    --     22.6378                18.0790                 0.0000

                     37                     38                     39
                      B                      B                      A
 Frequencies --   3202.3937              3204.3128              3214.4705
 Red. masses --      1.0918                 1.0955                 1.1031
 Frc consts  --      6.5969                 6.6273                 6.7157
 IR Inten    --     52.9555                59.4830                12.7818

 - Thermochemistry -
 -------------------
 Temperature   298.150 Kelvin.  Pressure   1.00000 Atm.
 Atom     1 has atomic number  6 and mass  12.00000

 Molecular mass:    92.06260 amu.
 Principal axes and moments of inertia in atomic units:
                           1         2         3
     Eigenvalues --   410.60207 416.07454 556.98046
           X           -0.00005   0.00000   1.00000
           Y            1.00000   0.00000   0.00005
           Z            0.00000   1.00000   0.00000
 This molecule is an asymmetric top.
 Rotational symmetry number  2.
 Rotational temperatures (Kelvin)      0.21094     0.20817     0.15551
 Rotational constants (GHZ):           4.39535     4.33754     3.24022
 Zero-point vibrational energy     335038.7 (Joules/Mol)
                                   80.07618 (Kcal/Mol)
 Warning -- explicit consideration of   2 degrees of freedom as
           vibrations may cause significant error
 Vibrational temperatures:    566.33   769.81   976.27  1005.83  1046.23
          (Kelvin)           1058.18  1103.19  1144.58  1193.46  1244.42
                             1303.39  1308.37  1335.39  1374.63  1392.15
                             1432.18  1459.28  1481.61  1498.92  1509.34
                             1545.46  1580.13  1700.30  1746.89  1792.54
                             1829.00  1841.96  1846.57  1965.12  1999.73
                             2134.26  4369.16  4430.46  4582.52  4586.65
                             4594.66  4607.52  4610.29  4624.90

 Zero-point correction=                           0.127610 (Hartree/Particle)
 Thermal correction to Energy=                    0.132258
 Thermal correction to Enthalpy=                  0.133202
 Thermal correction to Gibbs Free Energy=         0.100363
 Sum of electronic and zero-point Energies=           -271.347408
 Sum of electronic and thermal Energies=              -271.342760
 Sum of electronic and thermal Enthalpies=            -271.341815
 Sum of electronic and thermal Free Energies=         -271.374654

                     E (Thermal)             CV                S
                      KCal/Mol        Cal/Mol-Kelvin    Cal/Mol-Kelvin
 Total                   82.993             20.374             69.115
 Electronic               0.000              0.000              0.000
 Translational            0.889              2.981             39.472
 Rotational               0.889              2.981             24.679
 Vibrational             81.216             14.412              4.965
 Vibration     1          0.761              1.484              0.986
 Vibration     2          0.890              1.173              0.576

 Optimization completed.
    -- Stationary point found.
 Normal termination of Gaussian 09 at Thu Sep 17 15:29:02 2020.
