 Gaussian 09, Revision D.01,
 Gaussian 09:  ES64L-G09RevD.01 24-Apr-2013

 ----------------------------------------------------------------------
 # opt freq b3lyp/6-31+g(d,p) scrf=(cpcm,solvent=water) geom=connectivi
 ty empiricaldispersion=gd3
 ----------------------------------------------------------------------

 -------------------
 Title Card Required
 -------------------
 Symbolic Z-matrix:
 Charge =  0 Multiplicity = 3

 SCF Done:  E(UB3LYP) =  -837.935927207     A.U. after   19 cycles
 SCF Done:  E(UB3LYP) =  -837.936025794     A.U. after   14 cycles
 SCF Done:  E(UB3LYP) =  -837.935942666     A.U. after   15 cycles
 SCF Done:  E(UB3LYP) =  -837.935940898     A.U. after   15 cycles
 SCF Done:  E(UB3LYP) =  -837.936071526     A.U. after    9 cycles
 SCF Done:  E(UB3LYP) =  -837.936085730     A.U. after   13 cycles
 SCF Done:  E(UB3LYP) =  -837.936116530     A.U. after   13 cycles
 SCF Done:  E(UB3LYP) =  -837.936113414     A.U. after   11 cycles
 SCF Done:  E(UB3LYP) =  -837.936121082     A.U. after   11 cycles
 SCF Done:  E(UB3LYP) =  -837.936123361     A.U. after   12 cycles
 SCF Done:  E(UB3LYP) =  -837.936123614     A.U. after   10 cycles
 Optimization completed.
    -- Stationary point found.
 Normal termination of Gaussian 09 at Tue Jul 13 19:01:06 2021.

 ----------------------------------------------------------------------
 #N Geom=AllCheck Guess=TCheck SCRF=Check GenChk UB3LYP/6-31+G(d,p) Fre
 q
 ----------------------------------------------------------------------

 Structure from the checkpoint file:  "/local/2614708.1.40core-192G.q/Gau-125760.chk"
 -------------------
 Title Card Required
 -------------------
 Charge =  0 Multiplicity = 3

                         Standard orientation:
 ---------------------------------------------------------------------
 Center     Atomic      Atomic             Coordinates (Angstroms)
 Number     Number       Type             X           Y           Z
 ---------------------------------------------------------------------
      1          6           0        0.333686    0.686324   -0.595125
      2          6           0        0.954146    1.845275    0.267788
      3          6           0       -1.325817    2.016449    0.620864
      4          6           0       -1.085917    1.234997   -0.646673
      5          1           0        0.795413    0.620262   -1.579729
      6          1           0       -1.876530    0.776443   -1.221330
      7          6           0       -0.050633    1.917542    1.460326
      8          1           0        0.122286    2.805875    2.074899
      9          1           0       -0.028423    1.031374    2.103157
     10          6           0        0.520019    3.030613   -0.562023
     11          1           0        1.006797    3.997584   -0.598362
     12          6           0       -0.924350    2.764724   -0.672015
     13          1           0       -1.633368    3.381149   -1.210259
     14          1           0        2.009046    1.742854    0.509320
     15          1           0       -2.317268    2.113700    1.047039
     16          7           0       -0.369837   -1.245904    0.863924
     17          7           0        0.513248   -0.649526    0.063486
     18          6           0       -1.706543   -1.303010    0.492642
     19          6           0        1.826305   -1.189151    0.170874
     20          8           0        2.103714   -2.171486    0.828234
     21          8           0       -2.615405   -1.231696    1.307086
     22          8           0        2.679742   -0.485541   -0.575995
     23          8           0       -1.873729   -1.603825   -0.812513
     24          6           0       -3.239951   -1.805007   -1.244698
     25          1           0       -3.171788   -2.044548   -2.304597
     26          1           0       -3.693717   -2.629352   -0.690554
     27          1           0       -3.822376   -0.893144   -1.091655
     28          6           0        4.051516   -0.954428   -0.580529
     29          1           0        4.581900   -0.265804   -1.235117
     30          1           0        4.458695   -0.920541    0.431672
     31          1           0        4.096104   -1.973437   -0.969440
 ---------------------------------------------------------------------

 SCF Done:  E(UB3LYP) =  -837.936123614     A.U. after    1 cycles

 The electronic state is 3-A.
 Alpha  occ. eigenvalues --  -19.22709 -19.21658 -19.16844 -19.15892 -14.45791
 Alpha  occ. eigenvalues --  -14.40419 -10.37136 -10.35834 -10.25583 -10.25373
 Alpha  occ. eigenvalues --  -10.24892 -10.21223 -10.21109 -10.21022 -10.20910
 Alpha  occ. eigenvalues --  -10.20518 -10.19737  -1.14908  -1.13098  -1.06134
 Alpha  occ. eigenvalues --   -1.04052  -1.03598  -0.93790  -0.86092  -0.77158
 Alpha  occ. eigenvalues --   -0.75172  -0.74738  -0.72193  -0.71455  -0.62954
 Alpha  occ. eigenvalues --   -0.61069  -0.57594  -0.57206  -0.56376  -0.55543
 Alpha  occ. eigenvalues --   -0.55108  -0.52608  -0.51769  -0.49867  -0.49705
 Alpha  occ. eigenvalues --   -0.49394  -0.47687  -0.45461  -0.45047  -0.44172
 Alpha  occ. eigenvalues --   -0.43758  -0.42303  -0.41131  -0.39667  -0.39230
 Alpha  occ. eigenvalues --   -0.38467  -0.37916  -0.37378  -0.36030  -0.35493
 Alpha  occ. eigenvalues --   -0.33248  -0.32893  -0.32445  -0.31458  -0.30565
 Alpha  occ. eigenvalues --   -0.30255  -0.29737  -0.24178  -0.19514
 Alpha virt. eigenvalues --   -0.00469  -0.00176   0.00751   0.01322   0.01743
 Alpha virt. eigenvalues --    0.02314   0.02604   0.03151   0.03756   0.03990
 Alpha virt. eigenvalues --    0.04460   0.04599   0.04986   0.06167   0.06639

  Beta  occ. eigenvalues --  -19.22648 -19.21573 -19.16726 -19.15765 -14.45174
  Beta  occ. eigenvalues --  -14.39186 -10.37136 -10.35845 -10.25530 -10.25375
  Beta  occ. eigenvalues --  -10.24885 -10.21127 -10.21125 -10.20995 -10.20832
  Beta  occ. eigenvalues --  -10.19647 -10.19231  -1.14574  -1.12789  -1.05466
  Beta  occ. eigenvalues --   -1.03511  -1.02836  -0.93162  -0.84436  -0.76660
  Beta  occ. eigenvalues --   -0.74943  -0.74275  -0.71140  -0.70553  -0.62395
  Beta  occ. eigenvalues --   -0.60478  -0.57284  -0.56808  -0.56074  -0.54987
  Beta  occ. eigenvalues --   -0.54428  -0.51769  -0.51025  -0.49575  -0.49347
  Beta  occ. eigenvalues --   -0.49158  -0.47016  -0.45268  -0.44780  -0.43398
  Beta  occ. eigenvalues --   -0.43127  -0.41695  -0.40465  -0.39069  -0.38337
  Beta  occ. eigenvalues --   -0.38185  -0.37638  -0.36452  -0.35390  -0.33959
  Beta  occ. eigenvalues --   -0.32665  -0.32269  -0.31965  -0.30932  -0.29873
  Beta  occ. eigenvalues --   -0.29354  -0.28680
  Beta virt. eigenvalues --   -0.13064  -0.06600  -0.00119   0.00086   0.01190
  Beta virt. eigenvalues --    0.01656   0.02348   0.02562   0.02700   0.03166
  Beta virt. eigenvalues --    0.03915   0.04004   0.04509   0.04663   0.05214

 Mulliken charges and spin densities:
               1          2
     1  C   -0.312719   0.077571
     2  C    0.185599  -0.099055
     3  C   -0.057562   0.104242
     4  C   -0.158237  -0.003041
     5  H    0.188061   0.004642
     6  H    0.172213  -0.001259
     7  C   -0.396005   0.041556
     8  H    0.157787   0.000204
     9  H    0.163043   0.000160
    10  C   -0.242441   1.082988
    11  H    0.142311  -0.036435
    12  C   -0.190776  -0.136126
    13  H    0.151934   0.001841
    14  H    0.155393   0.000935
    15  H    0.151497  -0.001054
    16  N   -0.584769   0.593372
    17  N    0.147981   0.230817
    18  C    0.324107  -0.010150
    19  C    0.748536   0.005296
    20  O   -0.507680   0.047465
    21  O   -0.452411   0.044772
    22  O   -0.220064   0.022481
    23  O   -0.308827   0.020978
    24  C   -0.128202   0.003345
    25  H    0.167165   0.001334
    26  H    0.171483   0.001015
    27  H    0.167783   0.000756
    28  C   -0.160376  -0.001319
    29  H    0.175119   0.000019
    30  H    0.174415   0.001300
    31  H    0.175644   0.001351
 Sum of Mulliken charges =   0.00000   2.00000

 Dipole moment (field-independent basis, Debye):
    X=              2.1685    Y=              4.8794    Z=             -5.7654  Tot=              7.8582
 Quadrupole moment (field-independent basis, Debye-Ang):
   XX=            -81.2817   YY=           -102.5085   ZZ=           -104.1170
   XY=              1.6931   XZ=              7.3548   YZ=             11.8869

  Exact polarizability: 236.837   8.944 193.631 -12.199 -13.244 181.596
 Approx polarizability: 235.860   7.282 205.559 -16.611 -16.956 206.325

                      1                      2                      3
                      A                      A                      A
 Frequencies --     29.3365                58.5489                67.8429
 Red. masses --      4.3896                 4.4611                 3.9325
 Frc consts  --      0.0022                 0.0090                 0.0107
 IR Inten    --      1.3883                 1.9559                 5.0312

                      4                      5                      6
                      A                      A                      A
 Frequencies --     83.8397                94.6665               121.9941
 Red. masses --      4.2437                 3.5481                 3.5054
 Frc consts  --      0.0176                 0.0187                 0.0307
 IR Inten    --      7.1374                 0.4639                 1.1970

                      7                      8                      9
                      A                      A                      A
 Frequencies --    131.0202               143.3359               155.6973
 Red. masses --      1.5300                 1.2341                 2.4667
 Frc consts  --      0.0155                 0.0149                 0.0352
 IR Inten    --      1.7379                 0.6098                 2.0748

                     10                     11                     12
                      A                      A                      A
 Frequencies --    183.5221               210.7522               233.7262
 Red. masses --      4.2490                 5.2027                 4.0366
 Frc consts  --      0.0843                 0.1362                 0.1299
 IR Inten    --      7.6981                 2.0383                 8.3201

                     13                     14                     15
                      A                      A                      A
 Frequencies --    297.8466               310.0345               313.3243
 Red. masses --      3.7554                 1.5518                 3.0986
 Frc consts  --      0.1963                 0.0879                 0.1792
 IR Inten    --     19.3346                18.1895                45.8107

                     16                     17                     18
                      A                      A                      A
 Frequencies --    342.0734               350.5887               411.9144
 Red. masses --      5.1744                 6.2975                 6.6175
 Frc consts  --      0.3567                 0.4560                 0.6615
 IR Inten    --     20.8770                 1.8470                 0.3575

                     19                     20                     21
                      A                      A                      A
 Frequencies --    450.6299               467.5892               598.5079
 Red. masses --      8.4399                 2.2375                 7.3356
 Frc consts  --      1.0098                 0.2882                 1.5482
 IR Inten    --      6.8212                 1.3380                24.8232

                     22                     23                     24
                      A                      A                      A
 Frequencies --    610.9530               655.3895               674.7920
 Red. masses --      4.6974                 6.4045                 5.7904
 Frc consts  --      1.0331                 1.6208                 1.5535
 IR Inten    --     25.3293                 2.1236                 0.8168

                     25                     26                     27
                      A                      A                      A
 Frequencies --    682.0070               744.3297               762.2347
 Red. masses --      5.8842                 7.9754                 7.6576
 Frc consts  --      1.6126                 2.6033                 2.6213
 IR Inten    --      3.1097                10.4694                34.0929

                     28                     29                     30
                      A                      A                      A
 Frequencies --    775.5398               788.6846               800.0699
 Red. masses --      2.5746                 4.2333                 6.1384
 Frc consts  --      0.9123                 1.5514                 2.3150
 IR Inten    --     43.4197                11.9088                76.6956

                     31                     32                     33
                      A                      A                      A
 Frequencies --    831.3086               855.8125               877.6314
 Red. masses --      2.4713                 4.5103                 2.3887
 Frc consts  --      1.0062                 1.9463                 1.0840
 IR Inten    --     26.9604                76.6671                11.6972

                     34                     35                     36
                      A                      A                      A
 Frequencies --    890.3091               904.0514               909.4691
 Red. masses --      2.2941                 3.7624                 2.5109
 Frc consts  --      1.0714                 1.8118                 1.2237
 IR Inten    --      1.7169                 3.1237                10.9140

                     37                     38                     39
                      A                      A                      A
 Frequencies --    943.0846               968.0959               982.1855
 Red. masses --      1.9624                 2.1288                 2.6696
 Frc consts  --      1.0284                 1.1755                 1.5173
 IR Inten    --      1.2971                22.3100                 3.5003

                     40                     41                     42
                      A                      A                      A
 Frequencies --    988.1451              1004.0346              1033.2963
 Red. masses --      2.0565                 2.4293                 1.7374
 Frc consts  --      1.1831                 1.4428                 1.0930
 IR Inten    --     19.5705                16.5340                 2.0876

                     43                     44                     45
                      A                      A                      A
 Frequencies --   1050.1347              1062.5743              1064.3353
 Red. masses --      1.7012                 2.0063                 2.1869
 Frc consts  --      1.1053                 1.3346                 1.4596
 IR Inten    --      2.3614                82.8203                51.2716

                     46                     47                     48
                      A                      A                      A
 Frequencies --   1089.7529              1119.9385              1143.3276
 Red. masses --      1.4358                 3.2874                 1.2590
 Frc consts  --      1.0046                 2.4294                 0.9697
 IR Inten    --     72.7393                26.1564                 4.0477

                     49                     50                     51
                      A                      A                      A
 Frequencies --   1172.5525              1174.3952              1176.4266
 Red. masses --      1.2748                 1.2664                 1.6115
 Frc consts  --      1.0326                 1.0291                 1.3140
 IR Inten    --      2.9261                 4.4947                 5.4248

                     52                     53                     54
                      A                      A                      A
 Frequencies --   1185.1510              1203.5969              1214.4636
 Red. masses --      6.8711                 1.4924                 1.5647
 Frc consts  --      5.6862                 1.2738                 1.3598
 IR Inten    --    952.0964                21.4109                 6.7797

                     55                     56                     57
                      A                      A                      A
 Frequencies --   1244.3276              1252.5315              1260.9879
 Red. masses --      1.7953                 2.2996                 1.4281
 Frc consts  --      1.6377                 2.1256                 1.3379
 IR Inten    --     31.0838               594.5316                13.7667

                     58                     59                     60
                      A                      A                      A
 Frequencies --   1267.2278              1289.0101              1323.4934
 Red. masses --      2.6133                 2.0036                 1.6727
 Frc consts  --      2.4726                 1.9615                 1.7263
 IR Inten    --    536.7661                 7.9303                47.8779

                     61                     62                     63
                      A                      A                      A
 Frequencies --   1339.3400              1353.9277              1367.9676
 Red. masses --      1.8243                 1.8433                 2.2409
 Frc consts  --      1.9281                 1.9908                 2.4707
 IR Inten    --      6.2007                56.6386                 9.9606

                     64                     65                     66
                      A                      A                      A
 Frequencies --   1441.9703              1471.3668              1473.8202
 Red. masses --      2.7872                 1.2641                 1.2012
 Frc consts  --      3.4146                 1.6124                 1.5373
 IR Inten    --     45.9291                48.6895                30.3126

                     67                     68                     69
                      A                      A                      A
 Frequencies --   1477.3808              1479.1113              1486.5486
 Red. masses --      1.0477                 1.0445                 1.0574
 Frc consts  --      1.3473                 1.3463                 1.3767
 IR Inten    --     13.2842                16.0341                16.7093

                     70                     71                     72
                      A                      A                      A
 Frequencies --   1490.3398              1501.3607              1709.6427
 Red. masses --      1.0748                 1.0950                11.4574
 Frc consts  --      1.4066                 1.4543                19.7309
 IR Inten    --     13.0829                 4.9010               772.6796

                     73                     74                     75
                      A                      A                      A
 Frequencies --   1768.0252              3062.6194              3063.7210
 Red. masses --     11.5539                 1.0588                 1.0299
 Frc consts  --     21.2793                 5.8515                 5.6955
 IR Inten    --    673.3944                57.1734                39.3265

                     76                     77                     78
                      A                      A                      A
 Frequencies --   3073.0805              3112.7728              3140.9472
 Red. masses --      1.0292                 1.1070                 1.0870
 Frc consts  --      5.7264                 6.3195                 6.3181
 IR Inten    --     39.1785                34.9783                10.5137

                     79                     80                     81
                      A                      A                      A
 Frequencies --   3146.9037              3160.7348              3180.1182
 Red. masses --      1.1079                 1.1088                 1.0902
 Frc consts  --      6.4644                 6.5266                 6.4960
 IR Inten    --     24.8661                18.4536                18.9447

                     82                     83                     84
                      A                      A                      A
 Frequencies --   3184.7110              3194.5463              3213.5557
 Red. masses --      1.1070                 1.1077                 1.0924
 Frc consts  --      6.6152                 6.6603                 6.6464
 IR Inten    --     13.6654                11.8441                 8.9500

                     85                     86                     87
                      A                      A                      A
 Frequencies --   3221.2867              3232.1385              3260.1528
 Red. masses --      1.0904                 1.0968                 1.0932
 Frc consts  --      6.6663                 6.7506                 6.8457
 IR Inten    --     16.8238                20.7009                 5.1701

 - Thermochemistry -
 -------------------
 Temperature   298.150 Kelvin.  Pressure   1.00000 Atm.
 Atom     1 has atomic number  6 and mass  12.00000

 Molecular mass:   238.09536 amu.
 Principal axes and moments of inertia in atomic units:
                           1         2         3
     Eigenvalues --  3023.724943911.713425754.01716
           X            0.99990   0.01000   0.00982
           Y           -0.01023   0.99969   0.02288
           Z           -0.00959  -0.02298   0.99969
 This molecule is an asymmetric top.
 Rotational symmetry number  1.
 Warning -- assumption of classical behavior for rotation
           may cause significant error
 Rotational temperatures (Kelvin)      0.02864     0.02214     0.01505
 Rotational constants (GHZ):           0.59686     0.46137     0.31365
 Zero-point vibrational energy     643833.4 (Joules/Mol)
                                  153.87987 (Kcal/Mol)
 Warning -- explicit consideration of  22 degrees of freedom as
           vibrations may cause significant error
 Vibrational temperatures:     42.21    84.24    97.61   120.63   136.20
          (Kelvin)            175.52   188.51   206.23   224.01   264.05
                              303.22   336.28   428.53   446.07   450.80
                              492.17   504.42   592.65   648.36   672.76
                              861.12   879.02   942.96   970.87   981.25
                             1070.92  1096.68  1115.83  1134.74  1151.12
                             1196.07  1231.32  1262.71  1280.95  1300.73
                             1308.52  1356.89  1392.87  1413.14  1421.72
                             1444.58  1486.68  1510.91  1528.81  1531.34
                             1567.91  1611.34  1644.99  1687.04  1689.69
                             1692.61  1705.17  1731.71  1747.34  1790.31
                             1802.11  1814.28  1823.26  1854.60  1904.21
                             1927.01  1948.00  1968.20  2074.67  2116.97
                             2120.50  2125.62  2128.11  2138.81  2144.26
                             2160.12  2459.79  2543.79  4406.42  4408.01
                             4421.47  4478.58  4519.12  4527.69  4547.59
                             4575.48  4582.08  4596.23  4623.58  4634.71
                             4650.32  4690.63

 Zero-point correction=                           0.245223 (Hartree/Particle)
 Thermal correction to Energy=                    0.261259
 Thermal correction to Enthalpy=                  0.262203
 Thermal correction to Gibbs Free Energy=         0.199901
 Sum of electronic and zero-point Energies=           -837.690900
 Sum of electronic and thermal Energies=              -837.674865
 Sum of electronic and thermal Enthalpies=            -837.673921
 Sum of electronic and thermal Free Energies=         -837.736223

                     E (Thermal)             CV                S
                      KCal/Mol        Cal/Mol-Kelvin    Cal/Mol-Kelvin
 Total                  163.942             60.024            131.126
 Electronic               0.000              0.000              2.183
 Translational            0.889              2.981             42.304
 Rotational               0.889              2.981             32.587
 Vibrational            162.165             54.062             54.052
 Vibration     1          0.593              1.984              5.874
 Vibration     2          0.596              1.974              4.506
 Vibration     3          0.598              1.970              4.215
 Vibration     4          0.601              1.960              3.799
 Vibration     5          0.603              1.953              3.561
 Vibration     6          0.609              1.931              3.069
 Vibration     7          0.612              1.922              2.931
 Vibration     8          0.616              1.910              2.759
 Vibration     9          0.620              1.896              2.601
 Vibration    10          0.631              1.862              2.292
 Vibration    11          0.643              1.824              2.037
 Vibration    12          0.654              1.789              1.850
 Vibration    13          0.691              1.678              1.429
 Vibration    14          0.699              1.655              1.362
 Vibration    15          0.701              1.648              1.345
 Vibration    16          0.721              1.591              1.202
 Vibration    17          0.727              1.574              1.164
 Vibration    18          0.776              1.444              0.920
 Vibration    19          0.809              1.359              0.794
 Vibration    20          0.825              1.322              0.744
 Vibration    21          0.957              1.035              0.452
 Vibration    22          0.970              1.009              0.431

 Normal termination of Gaussian 09 at Tue Jul 13 20:03:21 2021.
