 Gaussian 09, Revision D.01,
 Gaussian 09:  ES64L-G09RevD.01 24-Apr-2013

 ----------------------------------------------------------------------
 # opt freq b3lyp/6-31+g(d,p) scrf=(cpcm,solvent=water) geom=connectivi
 ty empiricaldispersion=gd3
 ----------------------------------------------------------------------

 -------------------
 Title Card Required
 -------------------
 Symbolic Z-matrix:
 Charge =  0 Multiplicity = 1

 SCF Done:  E(RB3LYP) =  -566.430551450     A.U. after   14 cycles
 SCF Done:  E(RB3LYP) =  -566.432635721     A.U. after   12 cycles
 SCF Done:  E(RB3LYP) =  -566.431911596     A.U. after   11 cycles
 SCF Done:  E(RB3LYP) =  -566.432870259     A.U. after    9 cycles
 SCF Done:  E(RB3LYP) =  -566.433089274     A.U. after   11 cycles
 SCF Done:  E(RB3LYP) =  -566.433141261     A.U. after   11 cycles
 SCF Done:  E(RB3LYP) =  -566.433142649     A.U. after   11 cycles
 SCF Done:  E(RB3LYP) =  -566.433175601     A.U. after   10 cycles
 SCF Done:  E(RB3LYP) =  -566.433193620     A.U. after   11 cycles
 SCF Done:  E(RB3LYP) =  -566.433202401     A.U. after   10 cycles
 SCF Done:  E(RB3LYP) =  -566.433203601     A.U. after    9 cycles
 SCF Done:  E(RB3LYP) =  -566.433203747     A.U. after    8 cycles
 SCF Done:  E(RB3LYP) =  -566.433203844     A.U. after    8 cycles
 SCF Done:  E(RB3LYP) =  -566.433204019     A.U. after    8 cycles
 SCF Done:  E(RB3LYP) =  -566.433204139     A.U. after    8 cycles
 SCF Done:  E(RB3LYP) =  -566.433204163     A.U. after    7 cycles
 Optimization completed on the basis of negligible forces.
    -- Stationary point found.
 Normal termination of Gaussian 09 at Thu Sep 17 15:26:17 2020.

 ----------------------------------------------------------------------
 #N Geom=AllCheck Guess=TCheck SCRF=Check GenChk RB3LYP/6-31+G(d,p) Fre
 q
 ----------------------------------------------------------------------

 Structure from the checkpoint file:  "b3lyp_m062x_dmad_cycloaddition_PM6_toluene_water_1.chk"
 -------------------
 Title Card Required
 -------------------
 Charge =  0 Multiplicity = 1

                         Standard orientation:
 ---------------------------------------------------------------------
 Center     Atomic      Atomic             Coordinates (Angstroms)
 Number     Number       Type             X           Y           Z
 ---------------------------------------------------------------------
      1          7           0        0.335826    0.228716   -0.470681
      2          7           0       -0.335438   -0.227896    0.468031
      3          6           0        1.722680    0.462356   -0.116371
      4          6           0       -1.722149   -0.461758    0.113503
      5          8           0       -2.125625   -1.587047   -0.076408
      6          8           0        2.127959    1.588361    0.065314
      7          8           0       -2.408944    0.664429    0.135475
      8          8           0        2.407532   -0.665191   -0.128503
      9          6           0        3.844584   -0.551912    0.094651
     10          1           0        4.223132   -1.567256    0.002853
     11          1           0        4.282044    0.100347   -0.662796
     12          1           0        4.027690   -0.153924    1.093733
     13          6           0       -3.846052    0.550445   -0.087095
     14          1           0       -4.226303    1.564311    0.013548
     15          1           0       -4.029500    0.160486   -1.089277
     16          1           0       -4.281524   -0.108900    0.665335
 ---------------------------------------------------------------------

 SCF Done:  E(RB3LYP) =  -566.433204163     A.U. after    1 cycles

 The electronic state is 1-A.
 Alpha  occ. eigenvalues --  -19.24076 -19.24076 -19.18720 -19.18717 -14.45304
 Alpha  occ. eigenvalues --  -14.45252 -10.37882 -10.37880 -10.25906 -10.25905
 Alpha  occ. eigenvalues --   -1.16597  -1.15281  -1.08568  -1.06618  -1.06264
 Alpha  occ. eigenvalues --   -0.82878  -0.75990  -0.72585  -0.62984  -0.58790
 Alpha  occ. eigenvalues --   -0.57629  -0.54168  -0.52248  -0.51286  -0.51009
 Alpha  occ. eigenvalues --   -0.48579  -0.46159  -0.45977  -0.43437  -0.42530
 Alpha  occ. eigenvalues --   -0.41214  -0.39429  -0.39295  -0.34524  -0.34299
 Alpha  occ. eigenvalues --   -0.34266  -0.33153  -0.28241
 Alpha virt. eigenvalues --   -0.11038  -0.02653  -0.02117   0.00776   0.01495
 Alpha virt. eigenvalues --    0.02742   0.03297   0.03468   0.03952   0.05198
 Alpha virt. eigenvalues --    0.05646   0.07703   0.08117   0.08246   0.09414

 Mulliken charges:
               1
     1  N   -0.123712
     2  N   -0.119795
     3  C    0.581923
     4  C    0.582361
     5  O   -0.489517
     6  O   -0.489348
     7  O   -0.318778
     8  O   -0.318830
     9  C   -0.197138
    10  H    0.180775
    11  H    0.182063
    12  H    0.182194
    13  C   -0.197271
    14  H    0.180786
    15  H    0.182213
    16  H    0.182074
 Sum of Mulliken charges =   0.00000

 Dipole moment (field-independent basis, Debye):
    X=             -0.0048    Y=             -0.0045    Z=              0.0217  Tot=              0.0226
 Quadrupole moment (field-independent basis, Debye-Ang):
   XX=            -26.6926   YY=            -68.0988   ZZ=            -57.1328
   XY=            -13.8053   XZ=              0.0611   YZ=             -0.6924

  Exact polarizability: 127.407   4.914  99.210  -1.285  -0.463  69.794
 Approx polarizability: 120.557  10.855 122.373  -3.471  -0.192  81.433

                      1                      2                      3
                      A                      A                      A
 Frequencies --     11.6071                67.9267                75.7322
 Red. masses --      5.6586                 9.1751                 5.1295
 Frc consts  --      0.0004                 0.0249                 0.0173
 IR Inten    --     10.2307                 0.0020                 9.3322

                      4                      5                      6
                      A                      A                      A
 Frequencies --     98.2351               123.6938               127.1264
 Red. masses --      3.3185                 1.0999                 1.1485
 Frc consts  --      0.0189                 0.0099                 0.0109
 IR Inten    --      2.5999                 0.0061                 0.2222

                      7                      8                      9
                      A                      A                      A
 Frequencies --    151.6114               243.6479               256.9919
 Red. masses --      3.5719                 6.5155                 7.0124
 Frc consts  --      0.0484                 0.2279                 0.2729
 IR Inten    --      0.0001                 0.0033                19.0578

                     10                     11                     12
                      A                      A                      A
 Frequencies --    286.5428               289.9592               429.9964
 Red. masses --      4.3872                 4.3756                10.9119
 Frc consts  --      0.2122                 0.2168                 1.1887
 IR Inten    --     56.7070                 0.0076                 0.0000

                     13                     14                     15
                      A                      A                      A
 Frequencies --    576.9220               610.1160               640.8485
 Red. masses --      8.7542                10.3642                 9.4513
 Frc consts  --      1.7167                 2.2731                 2.2869
 IR Inten    --      8.7200                 0.0012                23.2363

                     16                     17                     18
                      A                      A                      A
 Frequencies --    814.4558               838.9323               894.9004
 Red. masses --     11.7669                 6.2463                 6.3550
 Frc consts  --      4.5988                 2.5902                 2.9986
 IR Inten    --     60.1939                 0.0010               112.9516

                     19                     20                     21
                      A                      A                      A
 Frequencies --    918.9611              1009.9045              1015.9454
 Red. masses --      8.9630                 9.1218                 9.9816
 Frc consts  --      4.4596                 5.4814                 6.0700
 IR Inten    --      0.0014                62.4616                 0.0159

                     22                     23                     24
                      A                      A                      A
 Frequencies --   1170.8176              1170.9398              1204.5439
 Red. masses --      1.2658                 1.2661                 1.4740
 Frc consts  --      1.0223                 1.0228                 1.2601
 IR Inten    --      3.3081                 0.1007                 0.1662

                     25                     26                     27
                      A                      A                      A
 Frequencies --   1204.7760              1268.3441              1283.5549
 Red. masses --      1.5029                 6.7632                 7.2331
 Frc consts  --      1.2853                 6.4103                 7.0210
 IR Inten    --     47.0588              1493.3024                 0.0617

                     28                     29                     30
                      A                      A                      A
 Frequencies --   1471.7959              1471.9578              1479.9324
 Red. masses --      1.2017                 1.1979                 1.0485
 Frc consts  --      1.5337                 1.5292                 1.3530
 IR Inten    --      0.0074                52.7133                 0.0102

                     31                     32                     33
                      A                      A                      A
 Frequencies --   1480.0151              1484.2923              1484.3254
 Red. masses --      1.0505                 1.0458                 1.0463
 Frc consts  --      1.3557                 1.3575                 1.3582
 IR Inten    --     33.8030                10.9674                23.8754

                     34                     35                     36
                      A                      A                      A
 Frequencies --   1664.4091              1785.8697              1790.8835
 Red. masses --     13.9473                11.7684                11.7537
 Frc consts  --     22.7646                22.1140                22.2105
 IR Inten    --      0.0003                 0.0275              1313.1523

                     37                     38                     39
                      A                      A                      A
 Frequencies --   3079.6369              3079.7238              3172.0304
 Red. masses --      1.0287                 1.0287                 1.1095
 Frc consts  --      5.7482                 5.7486                 6.5772
 IR Inten    --     51.9995                 0.2137                14.0713

                     40                     41                     42
                      A                      A                      A
 Frequencies --   3172.0575              3204.9790              3204.9836
 Red. masses --      1.1095                 1.1084                 1.1084
 Frc consts  --      6.5773                 6.7082                 6.7081
 IR Inten    --     11.9580                13.5086                 1.0068

 - Thermochemistry -
 -------------------
 Temperature   298.150 Kelvin.  Pressure   1.00000 Atm.
 Atom     1 has atomic number  7 and mass  14.00307

 Molecular mass:   146.03276 amu.
 Principal axes and moments of inertia in atomic units:
                           1         2         3
     Eigenvalues --   443.204783128.377613495.29168
           X            0.99983  -0.01791   0.00363
           Y            0.01792   0.99983  -0.00493
           Z           -0.00354   0.00500   0.99998
 This molecule is an asymmetric top.
 Rotational symmetry number  1.
 Warning -- assumption of classical behavior for rotation
           may cause significant error
 Rotational temperatures (Kelvin)      0.19543     0.02769     0.02478
 Rotational constants (GHZ):           4.07203     0.57689     0.51633
 Zero-point vibrational energy     297953.4 (Joules/Mol)
                                   71.21258 (Kcal/Mol)
 Warning -- explicit consideration of  14 degrees of freedom as
           vibrations may cause significant error
 Vibrational temperatures:     16.70    97.73   108.96   141.34   177.97
          (Kelvin)            182.91   218.13   350.55   369.75   412.27
                              417.19   618.67   830.06   877.82   922.04
                             1171.82  1207.04  1287.56  1322.18  1453.03
                             1461.72  1684.54  1684.72  1733.07  1733.40
                             1824.86  1846.75  2117.58  2117.82  2129.29
                             2129.41  2135.56  2135.61  2394.71  2569.46
                             2576.68  4430.91  4431.03  4563.84  4563.88
                             4611.24  4611.25

 Zero-point correction=                           0.113484 (Hartree/Particle)
 Thermal correction to Energy=                    0.124608
 Thermal correction to Enthalpy=                  0.125553
 Thermal correction to Gibbs Free Energy=         0.073930
 Sum of electronic and zero-point Energies=           -566.319720
 Sum of electronic and thermal Energies=              -566.308596
 Sum of electronic and thermal Enthalpies=            -566.307652
 Sum of electronic and thermal Free Energies=         -566.359274

                     E (Thermal)             CV                S
                      KCal/Mol        Cal/Mol-Kelvin    Cal/Mol-Kelvin
 Total                   78.193             35.625            108.648
 Electronic               0.000              0.000              0.000
 Translational            0.889              2.981             40.847
 Rotational               0.889              2.981             29.962
 Vibrational             76.415             29.664             37.840
 Vibration     1          0.593              1.987              7.715
 Vibration     2          0.598              1.970              4.213
 Vibration     3          0.599              1.965              3.999
 Vibration     4          0.604              1.950              3.489
 Vibration     5          0.610              1.929              3.042
 Vibration     6          0.611              1.926              2.989
 Vibration     7          0.619              1.901              2.652
 Vibration     8          0.659              1.773              1.776
 Vibration     9          0.667              1.751              1.682
 Vibration    10          0.684              1.699              1.494
 Vibration    11          0.686              1.692              1.474
 Vibration    12          0.791              1.405              0.859
 Vibration    13          0.933              1.081              0.491
 Vibration    14          0.969              1.010              0.433

 Optimization completed on the basis of negligible forces.
    -- Stationary point found.
 Normal termination of Gaussian 09 at Thu Sep 17 15:29:02 2020.
