 Gaussian 09, Revision D.01,
 Gaussian 09:  ES64L-G09RevD.01 24-Apr-2013

 ----------------------------------------------------------------------
 # freq b3lyp/6-31+g(d,p) scrf=(cpcm,solvent=water) geom=connectivity e
 mpiricaldispersion=gd3
 ----------------------------------------------------------------------

 -------------------
 Title Card Required
 -------------------
 Symbolic Z-matrix:
 Charge =  0 Multiplicity = 1

                         Standard orientation:
 ---------------------------------------------------------------------
 Center     Atomic      Atomic             Coordinates (Angstroms)
 Number     Number       Type             X           Y           Z
 ---------------------------------------------------------------------
      1          6           0        0.490487    0.861180   -0.876644
      2          6           0        1.731686    1.376515   -0.116647
      3          6           0       -0.073840    2.328364    0.966639
      4          6           0       -0.641502    1.674806   -0.272192
      5          1           0        0.506593    0.499709   -1.893307
      6          1           0       -1.688790    1.539451   -0.496873
      7          6           0        1.254966    1.664689    1.311115
      8          1           0        1.941641    2.342519    1.826545
      9          1           0        1.123960    0.752664    1.896349
     10          6           0        1.299999    2.489347   -0.963115
     11          1           0        1.703433    2.742212   -1.934737
     12          6           0        0.073903    3.060892   -0.341020
     13          1           0       -0.414359    3.980938   -0.630450
     14          1           0        2.671785    0.877379   -0.323734
     15          1           0       -0.755043    2.704272    1.719903
     16          7           0       -0.820863   -0.908550    0.855208
     17          7           0       -0.014322   -1.079947   -0.157082
     18          6           0       -2.172830   -0.834773    0.501253
     19          6           0        1.280900   -1.519216    0.248184
     20          8           0        1.642985   -1.815576    1.373589
     21          8           0       -3.041302   -0.717615    1.362924
     22          8           0        2.048523   -1.647320   -0.847781
     23          8           0       -2.456538   -0.923476   -0.817635
     24          6           0       -3.853994   -0.848057   -1.169036
     25          1           0       -3.883558   -0.938430   -2.254389
     26          1           0       -4.411168   -1.663394   -0.701632
     27          1           0       -4.275903    0.109744   -0.853634
     28          6           0        3.384755   -2.150600   -0.628337
     29          1           0        3.933852   -1.494293    0.051046
     30          1           0        3.344757   -3.159250   -0.210551
     31          1           0        3.852580   -2.161024   -1.611398
 ---------------------------------------------------------------------

 SCF Done:  E(RB3LYP) =  -837.895195767     A.U. after   18 cycles

 The electronic state is 1-A.
 Alpha  occ. eigenvalues --  -19.21359 -19.20457 -19.16036 -19.14683 -14.40297
 Alpha  occ. eigenvalues --  -14.37351 -10.35118 -10.33934 -10.25704 -10.25062
 Alpha  occ. eigenvalues --  -10.24751 -10.24297 -10.23883 -10.23329 -10.23034
 Alpha  occ. eigenvalues --  -10.22324 -10.20525  -1.12959  -1.11588  -1.03955
 Alpha  occ. eigenvalues --   -1.02176  -1.00716  -0.97616  -0.81467  -0.80247
 Alpha  occ. eigenvalues --   -0.75518  -0.73517  -0.70686  -0.70026  -0.60166
 Alpha  occ. eigenvalues --   -0.59759  -0.57744  -0.57034  -0.56253  -0.56026
 Alpha  occ. eigenvalues --   -0.54141  -0.50503  -0.50075  -0.49202  -0.48292
 Alpha  occ. eigenvalues --   -0.47509  -0.46479  -0.46084  -0.44798  -0.43513
 Alpha  occ. eigenvalues --   -0.42878  -0.42068  -0.41366  -0.40711  -0.40240
 Alpha  occ. eigenvalues --   -0.37915  -0.37433  -0.36614  -0.36384  -0.35522
 Alpha  occ. eigenvalues --   -0.32489  -0.32245  -0.31497  -0.31145  -0.30497
 Alpha  occ. eigenvalues --   -0.29493  -0.25519  -0.21151
 Alpha virt. eigenvalues --   -0.11861  -0.01304   0.00057   0.01217   0.01540
 Alpha virt. eigenvalues --    0.01924   0.02317   0.02737   0.03353   0.03729
 Alpha virt. eigenvalues --    0.04001   0.04267   0.04513   0.04886   0.06208

 Mulliken charges:
               1
     1  C   -0.255315
     2  C    0.037156
     3  C   -0.111906
     4  C    0.140769
     5  H    0.203813
     6  H    0.183354
     7  C   -0.303484
     8  H    0.166154
     9  H    0.182828
    10  C   -0.154751
    11  H    0.191625
    12  C   -0.276382
    13  H    0.173834
    14  H    0.182871
    15  H    0.168719
    16  N   -0.721568
    17  N   -0.065022
    18  C    0.466715
    19  C    0.546740
    20  O   -0.450272
    21  O   -0.501468
    22  O   -0.178450
    23  O   -0.336518
    24  C   -0.146085
    25  H    0.161547
    26  H    0.164299
    27  H    0.161981
    28  C   -0.135419
    29  H    0.167288
    30  H    0.169146
    31  H    0.167802
 Sum of Mulliken charges =   0.00000

 Dipole moment (field-independent basis, Debye):
    X=              5.0120    Y=              8.0266    Z=             -7.8047  Tot=             12.2663
 Quadrupole moment (field-independent basis, Debye-Ang):
   XX=            -86.5883   YY=            -86.6151   ZZ=           -106.7220
   XY=             -2.4884   XZ=              5.9459   YZ=              4.9239

  Exact polarizability: 258.730  54.421 316.061 -28.073 -44.409 201.802
 Approx polarizability: 297.654 109.154 446.023 -59.975 -98.646 258.872

 ******    1 imaginary frequencies (negative Signs) ******

                      1                      2                      3
                      A                      A                      A
 Frequencies --   -460.7496                31.4640                55.4185
 Red. masses --      9.5499                 3.7216                 5.0901
 Frc consts  --      1.1945                 0.0022                 0.0092
 IR Inten    --   1910.9186                 0.7548                 3.2920

                      4                      5                      6
                      A                      A                      A
 Frequencies --     58.2637                77.9337                94.2933
 Red. masses --      5.9653                 4.5936                 3.7359
 Frc consts  --      0.0119                 0.0164                 0.0196
 IR Inten    --      1.4580                 0.6717                 3.4115

                      7                      8                      9
                      A                      A                      A
 Frequencies --    106.6505               138.9237               152.2249
 Red. masses --      4.0089                 2.7123                 1.4186
 Frc consts  --      0.0269                 0.0308                 0.0194
 IR Inten    --      3.5058                10.7007                 3.2122

                     10                     11                     12
                      A                      A                      A
 Frequencies --    160.2592               173.2577               182.9689
 Red. masses --      1.5312                 3.0812                 2.5596
 Frc consts  --      0.0232                 0.0545                 0.0505
 IR Inten    --      0.5702                 2.7761                 1.7304

                     13                     14                     15
                      A                      A                      A
 Frequencies --    201.8077               251.1551               268.0507
 Red. masses --      4.0608                 5.0113                 6.8615
 Frc consts  --      0.0974                 0.1862                 0.2905
 IR Inten    --     29.5985                11.3387                 6.5142

                     16                     17                     18
                      A                      A                      A
 Frequencies --    323.6852               329.7807               415.9429
 Red. masses --      5.4151                 5.3062                 8.0262
 Frc consts  --      0.3343                 0.3400                 0.8181
 IR Inten    --     26.3426                12.6929                61.8278

                     19                     20                     21
                      A                      A                      A
 Frequencies --    426.4044               437.0471               509.0531
 Red. masses --      5.1840                 2.1876                 3.0032
 Frc consts  --      0.5553                 0.2462                 0.4585
 IR Inten    --     70.7821                23.9309                24.9631

                     22                     23                     24
                      A                      A                      A
 Frequencies --    597.2806               635.0376               646.1980
 Red. masses --      9.7443                 4.9981                 5.6502
 Frc consts  --      2.0481                 1.1876                 1.3901
 IR Inten    --     25.2996                34.4912               165.5433

                     25                     26                     27
                      A                      A                      A
 Frequencies --    687.1719               733.9981               757.8175
 Red. masses --      7.4621                 5.7850                 3.9159
 Frc consts  --      2.0761                 1.8363                 1.3250
 IR Inten    --     26.5474                30.3358               135.3455

                     28                     29                     30
                      A                      A                      A
 Frequencies --    775.7832               783.7540               790.2952
 Red. masses --      3.5052                 2.8345                 4.9531
 Frc consts  --      1.2429                 1.0259                 1.8227
 IR Inten    --     39.2646                21.9140                44.6741

                     31                     32                     33
                      A                      A                      A
 Frequencies --    799.1764               808.8947               815.5580
 Red. masses --      2.2206                 1.6241                 2.0461
 Frc consts  --      0.8356                 0.6261                 0.8018
 IR Inten    --     37.4606                28.9211                 6.4754

                     34                     35                     36
                      A                      A                      A
 Frequencies --    847.3158               886.5874               893.5209
 Red. masses --      2.6498                 3.2060                 2.0773
 Frc consts  --      1.1209                 1.4848                 0.9772
 IR Inten    --    466.4218                 9.2899                 7.2800

                     37                     38                     39
                      A                      A                      A
 Frequencies --    923.9933               955.7375               956.6484
 Red. masses --      2.0078                 2.1794                 3.3832
 Frc consts  --      1.0100                 1.1729                 1.8242
 IR Inten    --      2.1322                15.9515                45.6515

                     40                     41                     42
                      A                      A                      A
 Frequencies --    972.8706               996.1816              1020.8133
 Red. masses --      1.5315                 1.3954                 2.2633
 Frc consts  --      0.8540                 0.8159                 1.3896
 IR Inten    --     51.2835                 4.7100                92.9149

                     43                     44                     45
                      A                      A                      A
 Frequencies --   1037.6972              1048.9978              1056.2440
 Red. masses --      1.3553                 7.5457                 1.2443
 Frc consts  --      0.8599                 4.8921                 0.8179
 IR Inten    --      2.0225                10.8708                11.1983

                     46                     47                     48
                      A                      A                      A
 Frequencies --   1065.5749              1071.4554              1074.2956
 Red. masses --      1.6647                 8.2520                 1.3024
 Frc consts  --      1.1137                 5.5816                 0.8856
 IR Inten    --      4.3453               211.8644                10.3917

                     49                     50                     51
                      A                      A                      A
 Frequencies --   1108.8712              1174.3164              1175.4731
 Red. masses --      1.4068                 1.2710                 1.2689
 Frc consts  --      1.0191                 1.0327                 1.0330
 IR Inten    --     49.5082                 1.1719                 3.4451

                     52                     53                     54
                      A                      A                      A
 Frequencies --   1184.9513              1202.8573              1205.6413
 Red. masses --      1.2850                 1.5331                 2.0731
 Frc consts  --      1.0630                 1.3069                 1.7755
 IR Inten    --    178.1259               222.3635               449.6736

                     55                     56                     57
                      A                      A                      A
 Frequencies --   1214.4151              1242.4159              1255.5778
 Red. masses --      2.2618                 2.1596                 2.9548
 Frc consts  --      1.9653                 1.9641                 2.7445
 IR Inten    --    660.6444               568.5309               842.3065

                     58                     59                     60
                      A                      A                      A
 Frequencies --   1262.3288              1283.2679              1296.2225
 Red. masses --      1.5709                 1.9590                 1.9730
 Frc consts  --      1.4748                 1.9007                 1.9531
 IR Inten    --     54.7176                 8.9276               141.3399

                     61                     62                     63
                      A                      A                      A
 Frequencies --   1326.9826              1365.4964              1370.3916
 Red. masses --      4.6380                 4.0904                 2.5113
 Frc consts  --      4.8119                 4.4937                 2.7787
 IR Inten    --    325.8699               341.2802                90.6621

                     64                     65                     66
                      A                      A                      A
 Frequencies --   1402.7502              1470.5285              1473.0466
 Red. masses --      2.3640                 1.1749                 1.1718
 Frc consts  --      2.7407                 1.4970                 1.4981
 IR Inten    --     16.8683                40.2937                37.3506

                     67                     68                     69
                      A                      A                      A
 Frequencies --   1478.9212              1479.9577              1490.3870
 Red. masses --      1.0450                 1.0444                 1.0585
 Frc consts  --      1.3466                 1.3477                 1.3853
 IR Inten    --     11.4292                13.1991                21.7332

                     70                     71                     72
                      A                      A                      A
 Frequencies --   1491.9596              1492.7956              1685.2601
 Red. masses --      1.1081                 1.0584                10.9981
 Frc consts  --      1.4533                 1.3896                18.4036
 IR Inten    --     12.5714                13.8006              1197.0655

                     73                     74                     75
                      A                      A                      A
 Frequencies --   1726.2922              3058.8080              3063.5837
 Red. masses --     11.3225                 1.0298                 1.0300
 Frc consts  --     19.8802                 5.6770                 5.6960
 IR Inten    --    691.2870                58.7579                43.8863

                     76                     77                     78
                      A                      A                      A
 Frequencies --   3082.6432              3139.1771              3144.3238
 Red. masses --      1.0623                 1.1075                 1.1079
 Frc consts  --      5.9479                 6.4304                 6.4537
 IR Inten    --     41.2008                32.2256                27.9279

                     79                     80                     81
                      A                      A                      A
 Frequencies --   3149.1003              3173.7401              3183.4998
 Red. masses --      1.1045                 1.1067                 1.1066
 Frc consts  --      6.4536                 6.5677                 6.6077
 IR Inten    --      2.9527                20.1153                16.0922

                     82                     83                     84
                      A                      A                      A
 Frequencies --   3216.0370              3227.6190              3249.3814
 Red. masses --      1.0920                 1.0933                 1.0924
 Frc consts  --      6.6545                 6.7108                 6.7957
 IR Inten    --      4.7224                 2.4921                 9.0249

                     85                     86                     87
                      A                      A                      A
 Frequencies --   3260.7456              3269.8085              3283.3397
 Red. masses --      1.0972                 1.0934                 1.0942
 Frc consts  --      6.8734                 6.8875                 6.9500
 IR Inten    --      9.6593                 0.7888                 7.2957

 - Thermochemistry -
 -------------------
 Temperature   298.150 Kelvin.  Pressure   1.00000 Atm.
 Atom     1 has atomic number  6 and mass  12.00000

 Molecular mass:   238.09536 amu.
 Principal axes and moments of inertia in atomic units:
                           1         2         3
     Eigenvalues --  3058.120574116.570385753.59872
           X            0.99958  -0.02663   0.01174
           Y            0.02644   0.99952   0.01638
           Z           -0.01217  -0.01607   0.99980
 This molecule is an asymmetric top.
 Rotational symmetry number  1.
 Warning -- assumption of classical behavior for rotation
           may cause significant error
 Rotational temperatures (Kelvin)      0.02832     0.02104     0.01505
 Rotational constants (GHZ):           0.59015     0.43841     0.31367
    1 imaginary frequencies ignored.
 Zero-point vibrational energy     636391.8 (Joules/Mol)
                                  152.10129 (Kcal/Mol)
 Warning -- explicit consideration of  21 degrees of freedom as
           vibrations may cause significant error
 Vibrational temperatures:     45.27    79.73    83.83   112.13   135.67
          (Kelvin)            153.45   199.88   219.02   230.58   249.28
                              263.25   290.36   361.36   385.66   465.71
                              474.48   598.45   613.50   628.81   732.41
                              859.35   913.68   929.73   988.69  1056.06
                             1090.33  1116.18  1127.65  1137.06  1149.84
                             1163.82  1173.40  1219.10  1275.60  1285.58
                             1329.42  1375.09  1376.40  1399.74  1433.28
                             1468.72  1493.01  1509.27  1519.70  1533.12
                             1541.58  1545.67  1595.42  1689.58  1691.24
                             1704.88  1730.64  1734.65  1747.27  1787.56
                             1806.49  1816.21  1846.33  1864.97  1909.23
                             1964.64  1971.69  2018.24  2115.76  2119.38
                             2127.84  2129.33  2144.33  2146.59  2147.80
                             2424.71  2483.75  4400.94  4407.81  4435.23
                             4516.57  4523.98  4530.85  4566.30  4580.34
                             4627.15  4643.82  4675.13  4691.48  4704.52
                             4723.99

 Zero-point correction=                           0.242389 (Hartree/Particle)
 Thermal correction to Energy=                    0.258550
 Thermal correction to Enthalpy=                  0.259494
 Thermal correction to Gibbs Free Energy=         0.197663
 Sum of electronic and zero-point Energies=           -837.652807
 Sum of electronic and thermal Energies=              -837.636646
 Sum of electronic and thermal Enthalpies=            -837.635701
 Sum of electronic and thermal Free Energies=         -837.697532

                     E (Thermal)             CV                S
                      KCal/Mol        Cal/Mol-Kelvin    Cal/Mol-Kelvin
 Total                  162.243             59.902            130.134
 Electronic               0.000              0.000              0.000
 Translational            0.889              2.981             42.304
 Rotational               0.889              2.981             32.649
 Vibrational            160.465             53.940             55.181
 Vibration     1          0.594              1.983              5.735
 Vibration     2          0.596              1.975              4.614
 Vibration     3          0.596              1.974              4.515
 Vibration     4          0.599              1.964              3.942
 Vibration     5          0.603              1.953              3.569
 Vibration     6          0.606              1.944              3.329
 Vibration     7          0.615              1.914              2.819
 Vibration     8          0.619              1.900              2.644
 Vibration     9          0.622              1.891              2.547
 Vibration    10          0.627              1.875              2.400
 Vibration    11          0.630              1.863              2.298
 Vibration    12          0.639              1.837              2.117
 Vibration    13          0.663              1.761              1.722
 Vibration    14          0.673              1.732              1.609
 Vibration    15          0.708              1.628              1.291
 Vibration    16          0.713              1.616              1.261
 Vibration    17          0.779              1.436              0.906
 Vibration    18          0.788              1.413              0.870
 Vibration    19          0.797              1.389              0.836
 Vibration    20          0.864              1.230              0.636
 Vibration    21          0.955              1.038              0.454

 Normal termination of Gaussian 09 at Thu Sep 17 16:08:51 2020.
