 Gaussian 09, Revision D.01,
 Gaussian 09:  ES64L-G09RevD.01 24-Apr-2013

 ----------------------------------------------------------------------
 # opt freq b3lyp/6-31+g(d,p) scrf=(cpcm,solvent=water) geom=connectivi
 ty empiricaldispersion=gd3
 ----------------------------------------------------------------------

 -------------------
 Title Card Required
 -------------------
 Symbolic Z-matrix:
 Charge =  0 Multiplicity = 1

 SCF Done:  E(RB3LYP) =  -1116.11426260     A.U. after   15 cycles
 SCF Done:  E(RB3LYP) =  -1116.11831732     A.U. after   13 cycles
 SCF Done:  E(RB3LYP) =  -1116.11820590     A.U. after   13 cycles
 SCF Done:  E(RB3LYP) =  -1116.11883033     A.U. after   13 cycles
 SCF Done:  E(RB3LYP) =  -1116.11914677     A.U. after   13 cycles
 SCF Done:  E(RB3LYP) =  -1116.11929890     A.U. after   11 cycles
 SCF Done:  E(RB3LYP) =  -1116.11938310     A.U. after   11 cycles
 SCF Done:  E(RB3LYP) =  -1116.11942047     A.U. after   11 cycles
 SCF Done:  E(RB3LYP) =  -1116.11944746     A.U. after   11 cycles
 SCF Done:  E(RB3LYP) =  -1116.11945099     A.U. after   10 cycles
 SCF Done:  E(RB3LYP) =  -1116.11945473     A.U. after   11 cycles
 SCF Done:  E(RB3LYP) =  -1116.11945669     A.U. after   10 cycles
 SCF Done:  E(RB3LYP) =  -1116.11945812     A.U. after   10 cycles
 SCF Done:  E(RB3LYP) =  -1116.11945878     A.U. after   10 cycles
 SCF Done:  E(RB3LYP) =  -1116.11945902     A.U. after    9 cycles
 SCF Done:  E(RB3LYP) =  -1116.11945895     A.U. after    9 cycles
 Optimization completed.
    -- Stationary point found.
 Normal termination of Gaussian 09 at Thu Aug 27 18:21:37 2020.

 ----------------------------------------------------------------------
 #N Geom=AllCheck Guess=TCheck SCRF=Check GenChk RB3LYP/6-31+G(d,p) Fre
 q
 ----------------------------------------------------------------------

 Structure from the checkpoint file:  "b3lyp_pr_claisen_PM6_toluene_water.chk"
 -------------------
 Title Card Required
 -------------------
 Charge =  0 Multiplicity = 1

                         Standard orientation:
 ---------------------------------------------------------------------
 Center     Atomic      Atomic             Coordinates (Angstroms)
 Number     Number       Type             X           Y           Z
 ---------------------------------------------------------------------
      1          6           0        4.331547   -0.286330    0.422957
      2          6           0        3.358872    0.693596    0.223572
      3          6           0        2.025570    0.338587   -0.037023
      4          6           0        1.690875   -1.041038   -0.099463
      5          6           0        2.682725   -2.013290    0.096977
      6          6           0        3.998603   -1.644996    0.362118
      7          1           0        5.354941    0.013889    0.626302
      8          1           0        3.637995    1.739181    0.270942
      9          1           0        2.396715   -3.058230    0.041034
     10          1           0        4.758366   -2.403677    0.519874
     11          6           0        0.302717   -1.474435   -0.385176
     12          6           0        0.958738    1.324797   -0.255742
     13          6           0       -0.799338   -0.428827   -0.396663
     14          6           0       -0.326490    0.991504   -0.435514
     15          1           0       -1.078549    1.759386   -0.581772
     16          8           0        0.016479   -2.658202   -0.574267
     17         17           0        1.402691    3.040995   -0.279159
     18          6           0       -4.116979   -0.016335    0.243505
     19          6           0       -2.945948    0.218332    0.862833
     20          1           0       -2.838907    1.152781    1.412192
     21          6           0       -5.257614    0.969482    0.327099
     22          1           0       -6.148200    0.495856    0.760852
     23          1           0       -5.003152    1.844184    0.932853
     24          1           0       -5.545057    1.315365   -0.674618
     25          6           0       -4.409093   -1.244723   -0.583262
     26          1           0       -4.649493   -0.955914   -1.614766
     27          1           0       -3.579963   -1.954123   -0.618816
     28          1           0       -5.291238   -1.768105   -0.192499
     29          6           0       -1.732514   -0.676219    0.847580
     30          1           0       -1.139432   -0.512661    1.754085
     31          1           0       -2.008345   -1.734178    0.826097
     32          1           0       -1.413279   -0.625685   -1.284706
 ---------------------------------------------------------------------

 SCF Done:  E(RB3LYP) =  -1116.11945895     A.U. after    1 cycles

 The electronic state is 1-A.
 Alpha  occ. eigenvalues -- -101.56440 -19.15796 -10.29348 -10.26842 -10.23726
 Alpha  occ. eigenvalues --  -10.22063 -10.22058 -10.21785 -10.21643 -10.21456
 Alpha  occ. eigenvalues --  -10.21240 -10.21100 -10.20534 -10.20358 -10.18576
 Alpha  occ. eigenvalues --  -10.18381 -10.18254  -9.47924  -7.24320  -7.23366
 Alpha  occ. eigenvalues --   -7.23340  -1.05384  -0.90708  -0.86885  -0.83979
 Alpha  occ. eigenvalues --   -0.81312  -0.77963  -0.77389  -0.74198  -0.70542
 Alpha  occ. eigenvalues --   -0.69515  -0.65456  -0.64170  -0.62192  -0.58890
 Alpha  occ. eigenvalues --   -0.53930  -0.53111  -0.51335  -0.50674  -0.48355
 Alpha  occ. eigenvalues --   -0.46663  -0.45669  -0.45555  -0.44653  -0.44347
 Alpha  occ. eigenvalues --   -0.43607  -0.42918  -0.42113  -0.41158  -0.39687
 Alpha  occ. eigenvalues --   -0.38805  -0.38674  -0.38009  -0.37352  -0.37142
 Alpha  occ. eigenvalues --   -0.36101  -0.35859  -0.35305  -0.33444  -0.32531
 Alpha  occ. eigenvalues --   -0.29934  -0.27553  -0.27197  -0.24864  -0.23820
 Alpha virt. eigenvalues --   -0.08689  -0.05130  -0.00246  -0.00111   0.00413
 Alpha virt. eigenvalues --    0.01340   0.01509   0.01837   0.02373   0.02665
 Alpha virt. eigenvalues --    0.03008   0.03481   0.04262   0.04741   0.05051

 Mulliken charges:
               1
     1  C   -0.477716
     2  C   -0.545173
     3  C    0.317125
     4  C    0.292959
     5  C   -0.130216
     6  C   -0.221973
     7  H    0.156963
     8  H    0.159996
     9  H    0.164739
    10  H    0.155282
    11  C   -0.046949
    12  C   -0.301983
    13  C    0.402987
    14  C   -0.043548
    15  H    0.165943
    16  O   -0.505395
    17  Cl   0.254020
    18  C    0.423960
    19  C    0.108527
    20  H    0.122353
    21  C   -0.584277
    22  H    0.159411
    23  H    0.152370
    24  H    0.159071
    25  C   -0.625958
    26  H    0.165232
    27  H    0.146079
    28  H    0.163020
    29  C   -0.707183
    30  H    0.162023
    31  H    0.167979
    32  H    0.190331
 Sum of Mulliken charges =   0.00000

 Dipole moment (field-independent basis, Debye):
    X=              0.1600    Y=              1.4942    Z=              0.7614  Tot=              1.6846
 Quadrupole moment (field-independent basis, Debye-Ang):
   XX=            -84.7056   YY=           -119.9765   ZZ=           -111.0912
   XY=             -5.2565   XZ=              4.9704   YZ=             -2.0652

  Exact polarizability: 365.624   2.075 279.916  32.166   5.603 169.817
 Approx polarizability: 387.943  11.323 315.923  41.313   7.861 190.284

                      1                      2                      3
                      A                      A                      A
 Frequencies --     15.8608                30.9744                46.0150
 Red. masses --      4.8509                 3.7658                 3.8360
 Frc consts  --      0.0007                 0.0021                 0.0048
 IR Inten    --      2.6231                 0.4266                 1.2269

                      4                      5                      6
                      A                      A                      A
 Frequencies --     79.0850               106.2480               108.9446
 Red. masses --      3.1317                 5.1691                 4.1239
 Frc consts  --      0.0115                 0.0344                 0.0288
 IR Inten    --      0.1960                 0.2942                 2.1660

                      7                      8                      9
                      A                      A                      A
 Frequencies --    135.9965               170.6948               192.9942
 Red. masses --      1.0637                 3.1846                 1.4481
 Frc consts  --      0.0116                 0.0547                 0.0318
 IR Inten    --      0.9867                 3.4918                 2.2939

                     10                     11                     12
                      A                      A                      A
 Frequencies --    207.2768               225.2275               292.0617
 Red. masses --      3.9451                 7.8601                 3.0514
 Frc consts  --      0.0999                 0.2349                 0.1534
 IR Inten    --      4.7899                 1.9281                 0.8269

                     13                     14                     15
                      A                      A                      A
 Frequencies --    318.5814               334.0097               362.4292
 Red. masses --      3.2978                 5.9024                10.9117
 Frc consts  --      0.1972                 0.3880                 0.8445
 IR Inten    --      7.8485                11.9724                 0.6634

                     16                     17                     18
                      A                      A                      A
 Frequencies --    398.2541               406.3772               423.1228
 Red. masses --      3.3352                 2.8035                 3.0713
 Frc consts  --      0.3117                 0.2728                 0.3240
 IR Inten    --      6.5660                 4.4274                 1.6181

                     19                     20                     21
                      A                      A                      A
 Frequencies --    447.6024               471.6026               488.3941
 Red. masses --      3.3585                 4.0404                 2.9916
 Frc consts  --      0.3964                 0.5294                 0.4204
 IR Inten    --      8.6061                 1.7807                 1.4255

                     22                     23                     24
                      A                      A                      A
 Frequencies --    531.8483               551.2432               592.7944
 Red. masses --      5.4489                 3.2257                 3.5153
 Frc consts  --      0.9081                 0.5775                 0.7278
 IR Inten    --     18.2654                12.6053                 4.8250

                     25                     26                     27
                      A                      A                      A
 Frequencies --    623.3076               636.9752               694.9351
 Red. masses --      3.4956                 6.3543                 4.0629
 Frc consts  --      0.8001                 1.5190                 1.1561
 IR Inten    --      5.0382                40.0649                17.6649

                     28                     29                     30
                      A                      A                      A
 Frequencies --    719.5554               761.0099               776.1116
 Red. masses --      5.1527                 4.1821                 3.1508
 Frc consts  --      1.5718                 1.4270                 1.1182
 IR Inten    --     15.8191                12.6421                11.3907

                     31                     32                     33
                      A                      A                      A
 Frequencies --    782.3837               818.1535               845.8801
 Red. masses --      1.4993                 3.5397                 1.6746
 Frc consts  --      0.5407                 1.3960                 0.7060
 IR Inten    --     81.0725                11.5679                26.4873

                     34                     35                     36
                      A                      A                      A
 Frequencies --    877.1276               896.7385               903.2888
 Red. masses --      1.3804                 2.0771                 1.6205
 Frc consts  --      0.6257                 0.9841                 0.7790
 IR Inten    --     51.2824                29.0948                18.8669

                     37                     38                     39
                      A                      A                      A
 Frequencies --    933.4923               965.2332               975.9891
 Red. masses --      4.5846                 1.4833                 2.0639
 Frc consts  --      2.3538                 0.8142                 1.1583
 IR Inten    --     94.9601                 0.8112                 4.5983

                     40                     41                     42
                      A                      A                      A
 Frequencies --    989.2898              1007.6859              1015.2572
 Red. masses --      1.4693                 1.2481                 1.3279
 Frc consts  --      0.8472                 0.7467                 0.8064
 IR Inten    --      2.9903                 6.8362                 0.1044

                     43                     44                     45
                      A                      A                      A
 Frequencies --   1027.6434              1043.8577              1073.0682
 Red. masses --      3.5597                 2.7414                 2.0608
 Frc consts  --      2.2148                 1.7600                 1.3981
 IR Inten    --    109.0781                 3.1587                 1.3179

                     46                     47                     48
                      A                      A                      A
 Frequencies --   1098.6550              1100.7866              1131.0862
 Red. masses --      1.9620                 2.0593                 1.9196
 Frc consts  --      1.3953                 1.4702                 1.4470
 IR Inten    --      4.6559                10.0761                14.0771

                     49                     50                     51
                      A                      A                      A
 Frequencies --   1145.3012              1164.7035              1193.5242
 Red. masses --      1.7403                 1.3772                 1.1963
 Frc consts  --      1.3450                 1.1007                 1.0040
 IR Inten    --      7.3458                21.2873                 9.5706

                     52                     53                     54
                      A                      A                      A
 Frequencies --   1207.6327              1243.2065              1265.9406
 Red. masses --      1.7446                 1.9424                 2.1812
 Frc consts  --      1.4990                 1.7688                 2.0596
 IR Inten    --     21.8222                 2.4392                75.5496

                     55                     56                     57
                      A                      A                      A
 Frequencies --   1272.4813              1312.9471              1327.0269
 Red. masses --      1.3166                 1.9258                 1.2553
 Frc consts  --      1.2560                 1.9560                 1.3025
 IR Inten    --      6.5169               150.1915                 4.0757

                     58                     59                     60
                      A                      A                      A
 Frequencies --   1348.1423              1362.6893              1367.8999
 Red. masses --      4.0434                 2.2692                 1.6598
 Frc consts  --      4.3298                 2.4826                 1.8299
 IR Inten    --     40.7599                75.3003                37.4467

                     61                     62                     63
                      A                      A                      A
 Frequencies --   1384.2948              1413.2206              1418.2946
 Red. masses --      1.3729                 1.3512                 1.2603
 Frc consts  --      1.5500                 1.5900                 1.4937
 IR Inten    --      6.7743                 7.6774                 7.4379

                     64                     65                     66
                      A                      A                      A
 Frequencies --   1466.3387              1476.4230              1479.6451
 Red. masses --      1.0459                 1.0646                 2.3184
 Frc consts  --      1.3250                 1.3673                 2.9905
 IR Inten    --      0.3548                 8.8340                33.9675

                     67                     68                     69
                      A                      A                      A
 Frequencies --   1484.5382              1487.0699              1506.1167
 Red. masses --      1.0592                 1.0734                 1.1549
 Frc consts  --      1.3753                 1.3985                 1.5436
 IR Inten    --     22.6611                16.9824                 4.3465

                     70                     71                     72
                      A                      A                      A
 Frequencies --   1507.5937              1602.3283              1634.9240
 Red. masses --      2.2640                 5.6122                 5.6690
 Frc consts  --      3.0317                 8.4896                 8.9280
 IR Inten    --     27.2930                 2.1498               182.1125

                     73                     74                     75
                      A                      A                      A
 Frequencies --   1680.1426              1703.0924              1723.0256
 Red. masses --      8.2607                11.4314                 6.4065
 Frc consts  --     13.7391                19.5355                11.2062
 IR Inten    --    111.2020               383.7887                41.9578

                     76                     77                     78
                      A                      A                      A
 Frequencies --   3015.8161              3024.5145              3046.3030
 Red. masses --      1.0379                 1.0406                 1.0786
 Frc consts  --      5.5620                 5.6087                 5.8973
 IR Inten    --     51.4520                77.6406                 6.5013

                     79                     80                     81
                      A                      A                      A
 Frequencies --   3056.9045              3065.1276              3070.4908
 Red. masses --      1.0655                 1.1000                 1.0996
 Frc consts  --      5.8664                 6.0891                 6.1082
 IR Inten    --     35.4028                21.5925                42.3652

                     82                     83                     84
                      A                      A                      A
 Frequencies --   3108.5005              3112.1398              3135.2446
 Red. masses --      1.1028                 1.1009                 1.0972
 Frc consts  --      6.2784                 6.2820                 6.3542
 IR Inten    --     20.7978                39.4052                35.5156

                     85                     86                     87
                      A                      A                      A
 Frequencies --   3149.9809              3195.4175              3207.6775
 Red. masses --      1.0893                 1.0874                 1.0911
 Frc consts  --      6.3683                 6.5420                 6.6142
 IR Inten    --     43.0099                 4.1462                11.4614

                     88                     89                     90
                      A                      A                      A
 Frequencies --   3211.2684              3218.7407              3229.4127
 Red. masses --      1.0918                 1.0951                 1.0933
 Frc consts  --      6.6338                 6.6847                 6.7182
 IR Inten    --      2.2090                19.4918                 8.2397

 - Thermochemistry -
 -------------------
 Temperature   298.150 Kelvin.  Pressure   1.00000 Atm.
 Atom     1 has atomic number  6 and mass  12.00000

 Molecular mass:   246.08114 amu.
 Principal axes and moments of inertia in atomic units:
                           1         2         3
     Eigenvalues --  2612.291217212.771659422.38149
           X            0.99993  -0.01141   0.00359
           Y            0.01140   0.99992   0.00512
           Z           -0.00365  -0.00508   0.99998
 This molecule is an asymmetric top.
 Rotational symmetry number  1.
 Warning -- assumption of classical behavior for rotation
           may cause significant error
 Rotational temperatures (Kelvin)      0.03316     0.01201     0.00919
 Rotational constants (GHZ):           0.69087     0.25021     0.19154
 Zero-point vibrational energy     679845.1 (Joules/Mol)
                                  162.48689 (Kcal/Mol)
 Warning -- explicit consideration of  24 degrees of freedom as
           vibrations may cause significant error
 Vibrational temperatures:     22.82    44.57    66.21   113.79   152.87
          (Kelvin)            156.75   195.67   245.59   277.68   298.22
                              324.05   420.21   458.37   480.56   521.45
                              573.00   584.69   608.78   644.00   678.53
                              702.69   765.21   793.11   852.90   896.80
                              916.46   999.86  1035.28  1094.92  1116.65
                             1125.67  1177.14  1217.03  1261.99  1290.21
                             1299.63  1343.09  1388.75  1404.23  1423.37
                             1449.83  1460.73  1478.55  1501.88  1543.90
                             1580.72  1583.78  1627.38  1647.83  1675.75
                             1717.21  1737.51  1788.69  1821.40  1830.81
                             1889.04  1909.29  1939.67  1960.60  1968.10
                             1991.69  2033.31  2040.61  2109.73  2124.24
                             2128.88  2135.92  2139.56  2166.96  2169.09
                             2305.39  2352.29  2417.35  2450.37  2479.05
                             4339.08  4351.60  4382.95  4398.20  4410.03
                             4417.75  4472.43  4477.67  4510.91  4532.11
                             4597.49  4615.13  4620.29  4631.04  4646.40

 Zero-point correction=                           0.258939 (Hartree/Particle)
 Thermal correction to Energy=                    0.274998
 Thermal correction to Enthalpy=                  0.275942
 Thermal correction to Gibbs Free Energy=         0.213227
 Sum of electronic and zero-point Energies=          -1115.860520
 Sum of electronic and thermal Energies=             -1115.844461
 Sum of electronic and thermal Enthalpies=           -1115.843517
 Sum of electronic and thermal Free Energies=        -1115.906232

                     E (Thermal)             CV                S
                      KCal/Mol        Cal/Mol-Kelvin    Cal/Mol-Kelvin
 Total                  172.564             60.873            131.994
 Electronic               0.000              0.000              0.000
 Translational            0.889              2.981             42.402
 Rotational               0.889              2.981             33.540
 Vibrational            170.786             54.911             56.052
 Vibration     1          0.593              1.986              7.095
 Vibration     2          0.594              1.984              5.766
 Vibration     3          0.595              1.979              4.982
 Vibration     4          0.600              1.963              3.913
 Vibration     5          0.605              1.944              3.336
 Vibration     6          0.606              1.942              3.288
 Vibration     7          0.614              1.917              2.859
 Vibration     8          0.626              1.879              2.428
 Vibration     9          0.635              1.850              2.199
 Vibration    10          0.641              1.829              2.068
 Vibration    11          0.650              1.803              1.917
 Vibration    12          0.687              1.689              1.462
 Vibration    13          0.705              1.638              1.317
 Vibration    14          0.716              1.608              1.241
 Vibration    15          0.736              1.550              1.112
 Vibration    16          0.765              1.474              0.969
 Vibration    17          0.771              1.456              0.940
 Vibration    18          0.785              1.420              0.881
 Vibration    19          0.807              1.366              0.803
 Vibration    20          0.829              1.313              0.733
 Vibration    21          0.844              1.276              0.688
 Vibration    22          0.887              1.180              0.583
 Vibration    23          0.907              1.137              0.542
 Vibration    24          0.950              1.047              0.462

 Optimization completed.
    -- Stationary point found.
 Normal termination of Gaussian 09 at Thu Aug 27 19:07:46 2020.
