 Gaussian 09, Revision D.01,
 Gaussian 09:  ES64L-G09RevD.01 24-Apr-2013

 ----------------------------------------------------------------------
 # opt=(calcfc,ts,noeigentest) b3lyp/6-31+g(d,p) scrf=(cpcm,solvent=wat
 er) geom=connectivity empiricaldispersion=gd3
 ----------------------------------------------------------------------

 -------------------
 Title Card Required
 -------------------
 Symbolic Z-matrix:
 Charge =  0 Multiplicity = 1

 SCF Done:  E(RB3LYP) =  -1116.06827744     A.U. after   16 cycles

  Exact polarizability:   0.000   0.000   0.000   0.000   0.000   0.000
 Approx polarizability: 438.185 -22.506 384.952 -11.194  -1.805 214.913

 SCF Done:  E(RB3LYP) =  -1116.07755277     A.U. after   14 cycles
 SCF Done:  E(RB3LYP) =  -1116.08214801     A.U. after   13 cycles
 SCF Done:  E(RB3LYP) =  -1116.08424767     A.U. after   13 cycles
 SCF Done:  E(RB3LYP) =  -1116.08474885     A.U. after   12 cycles
 SCF Done:  E(RB3LYP) =  -1116.08478791     A.U. after   12 cycles
 SCF Done:  E(RB3LYP) =  -1116.08478931     A.U. after   11 cycles
 SCF Done:  E(RB3LYP) =  -1116.08478908     A.U. after   10 cycles
 SCF Done:  E(RB3LYP) =  -1116.08475237     A.U. after   14 cycles
 SCF Done:  E(RB3LYP) =  -1116.08473231     A.U. after   13 cycles
 SCF Done:  E(RB3LYP) =  -1116.08483805     A.U. after   13 cycles
 SCF Done:  E(RB3LYP) =  -1116.08478467     A.U. after   13 cycles
 SCF Done:  E(RB3LYP) =  -1116.08433106     A.U. after   13 cycles
 SCF Done:  E(RB3LYP) =  -1116.08471784     A.U. after   13 cycles
 SCF Done:  E(RB3LYP) =  -1116.08478666     A.U. after   12 cycles
 SCF Done:  E(RB3LYP) =  -1116.08478892     A.U. after   11 cycles
 SCF Done:  E(RB3LYP) =  -1116.08478883     A.U. after    9 cycles
 SCF Done:  E(RB3LYP) =  -1116.08478889     A.U. after    9 cycles
 Optimization completed.
    -- Stationary point found.

                         Standard orientation:
 ---------------------------------------------------------------------
 Center     Atomic      Atomic             Coordinates (Angstroms)
 Number     Number       Type             X           Y           Z
 ---------------------------------------------------------------------
      1          6           0       -2.261569    2.716833    0.365967
      2          6           0       -2.609536    1.377336    0.349135
      3          6           0       -1.689480    0.390762   -0.090731
      4          6           0       -0.385362    0.808430   -0.507264
      5          6           0       -0.066349    2.183504   -0.492379
      6          6           0       -0.981499    3.128195   -0.061450
      7          1           0       -2.982596    3.454402    0.705994
      8          1           0       -3.599374    1.074857    0.671191
      9          1           0        0.923961    2.476133   -0.823569
     10          1           0       -0.716829    4.181257   -0.051003
     11          6           0        0.602230   -0.166973   -0.989090
     12          6           0       -1.996510   -1.013151   -0.151170
     13          6           0        0.223965   -1.540540   -0.960899
     14          1           0        0.886239   -2.260895   -1.425057
     15          6           0       -1.088374   -1.938948   -0.591420
     16          1           0       -1.360538   -2.988162   -0.638165
     17          8           0        1.778988    0.193413   -1.339098
     18         17           0       -3.602570   -1.578569    0.336866
     19          6           0        3.199262   -0.153094    0.466873
     20          6           0        2.783690   -1.488973    0.577729
     21          1           0        3.375945   -2.233960    0.051068
     22          6           0        4.471867    0.171460   -0.250107
     23          1           0        4.842207   -0.668205   -0.842333
     24          1           0        4.316739    1.032886   -0.907080
     25          1           0        5.243705    0.457296    0.477873
     26          6           0        2.627591    0.945180    1.311759
     27          1           0        1.565714    0.818852    1.524370
     28          1           0        3.162619    0.956146    2.271615
     29          1           0        2.775139    1.917457    0.837976
     30          6           0        1.563992   -1.883423    1.085726
     31          1           0        1.290452   -2.932131    1.104462
     32          1           0        0.924894   -1.217139    1.652637
 ---------------------------------------------------------------------

 The electronic state is 1-A.
 Alpha  occ. eigenvalues -- -101.56099 -19.13150 -10.25710 -10.25321 -10.25310
 Alpha  occ. eigenvalues --  -10.22514 -10.22178 -10.20977 -10.20841 -10.20483
 Alpha  occ. eigenvalues --  -10.20395 -10.20284 -10.20155 -10.20106 -10.19988
 Alpha  occ. eigenvalues --  -10.19229 -10.19178  -9.47570  -7.23956  -7.23024
 Alpha  occ. eigenvalues --   -7.22994  -1.00965  -0.89837  -0.85797  -0.84127
 Alpha  occ. eigenvalues --   -0.81651  -0.76406  -0.76186  -0.75270  -0.70905
 Alpha  occ. eigenvalues --   -0.70293  -0.63950  -0.63307  -0.62721  -0.57865
 Alpha  occ. eigenvalues --   -0.53854  -0.52169  -0.51826  -0.49831  -0.48853
 Alpha  occ. eigenvalues --   -0.46760  -0.46231  -0.45988  -0.44227  -0.43346
 Alpha  occ. eigenvalues --   -0.42770  -0.41753  -0.41504  -0.40914  -0.39793
 Alpha  occ. eigenvalues --   -0.39165  -0.38981  -0.37648  -0.37378  -0.36335
 Alpha  occ. eigenvalues --   -0.36143  -0.35972  -0.34887  -0.32205  -0.30764
 Alpha  occ. eigenvalues --   -0.29639  -0.26975  -0.25942  -0.24989  -0.20703
 Alpha virt. eigenvalues --   -0.09382  -0.04725  -0.02658   0.00036   0.00369
 Alpha virt. eigenvalues --    0.01268   0.01567   0.01820   0.02674   0.02709
 Alpha virt. eigenvalues --    0.03080   0.03494   0.04040   0.04814   0.05074

 Mulliken charges:
               1
     1  C   -0.474703
     2  C   -0.358818
     3  C    0.620080
     4  C    0.351148
     5  C   -0.436946
     6  C   -0.296615
     7  H    0.146153
     8  H    0.150729
     9  H    0.148801
    10  H    0.144397
    11  C   -0.241402
    12  C   -0.117039
    13  C    0.176689
    14  H    0.160736
    15  C   -0.294481
    16  H    0.154039
    17  O   -0.536961
    18  Cl   0.220270
    19  C    0.537549
    20  C   -0.034638
    21  H    0.138235
    22  C   -0.511969
    23  H    0.158850
    24  H    0.182697
    25  H    0.177518
    26  C   -0.656559
    27  H    0.161016
    28  H    0.183057
    29  H    0.169422
    30  C   -0.373653
    31  H    0.178619
    32  H    0.173780
 Sum of Mulliken charges =   0.00000

 Dipole moment (field-independent basis, Debye):
    X=              3.9555    Y=             -0.3801    Z=              3.4407  Tot=              5.2564
 Quadrupole moment (field-independent basis, Debye-Ang):
   XX=           -102.1039   YY=            -95.4580   ZZ=           -114.6887
   XY=             -5.5330   XZ=              4.5178   YZ=              3.3001

 Normal termination of Gaussian 09 at Thu Aug 27 19:38:52 2020.
