 Gaussian 09, Revision D.01,
 Gaussian 09:  ES64L-G09RevD.01 24-Apr-2013

 ----------------------------------------------------------------------
 # opt freq b3lyp/6-31+g(d,p) scrf=(cpcm,solvent=water) geom=connectivi
 ty empiricaldispersion=gd3
 ----------------------------------------------------------------------

 -------------------
 Title Card Required
 -------------------
 Symbolic Z-matrix:
 Charge =  0 Multiplicity = 1

 SCF Done:  E(RB3LYP) =  -1116.10843142     A.U. after   15 cycles
 SCF Done:  E(RB3LYP) =  -1116.11077887     A.U. after   15 cycles
 SCF Done:  E(RB3LYP) =  -1116.10926976     A.U. after   15 cycles
 SCF Done:  E(RB3LYP) =  -1116.11227619     A.U. after   12 cycles
 SCF Done:  E(RB3LYP) =  -1116.11355887     A.U. after   12 cycles
 SCF Done:  E(RB3LYP) =  -1116.11450980     A.U. after   12 cycles
 SCF Done:  E(RB3LYP) =  -1116.11487930     A.U. after   12 cycles
 SCF Done:  E(RB3LYP) =  -1116.11507383     A.U. after   12 cycles
 SCF Done:  E(RB3LYP) =  -1116.11520988     A.U. after   12 cycles
 SCF Done:  E(RB3LYP) =  -1116.11529002     A.U. after   12 cycles
 SCF Done:  E(RB3LYP) =  -1116.11533282     A.U. after   12 cycles
 SCF Done:  E(RB3LYP) =  -1116.11535712     A.U. after   11 cycles
 SCF Done:  E(RB3LYP) =  -1116.11535824     A.U. after   10 cycles
 SCF Done:  E(RB3LYP) =  -1116.11535864     A.U. after   10 cycles
 SCF Done:  E(RB3LYP) =  -1116.11535869     A.U. after    8 cycles
 Optimization completed.
    -- Stationary point found.
 Normal termination of Gaussian 09 at Thu Aug 27 18:29:02 2020.

 ----------------------------------------------------------------------
 #N Geom=AllCheck Guess=TCheck SCRF=Check GenChk RB3LYP/6-31+G(d,p) Fre
 q
 ----------------------------------------------------------------------

 Structure from the checkpoint file:  "b3lyp_sm_claisen_PM6_toluene_water.chk"
 -------------------
 Title Card Required
 -------------------
 Charge =  0 Multiplicity = 1

                         Standard orientation:
 ---------------------------------------------------------------------
 Center     Atomic      Atomic             Coordinates (Angstroms)
 Number     Number       Type             X           Y           Z
 ---------------------------------------------------------------------
      1          6           0       -2.834665    2.516225    0.164601
      2          6           0       -3.023864    1.152816    0.072814
      3          6           0       -1.917208    0.259852    0.039072
      4          6           0       -0.590211    0.808696    0.106618
      5          6           0       -0.431829    2.218172    0.195092
      6          6           0       -1.527564    3.055832    0.223600
      7          1           0       -3.694573    3.178869    0.188991
      8          1           0       -4.028353    0.748509    0.025094
      9          1           0        0.572619    2.622066    0.237836
     10          1           0       -1.388424    4.130641    0.289448
     11          6           0        0.546362   -0.068810    0.082997
     12          6           0       -2.043482   -1.156902   -0.066083
     13          6           0        0.362498   -1.435645   -0.008851
     14          1           0        1.207608   -2.109139   -0.000050
     15          6           0       -0.940910   -1.976883   -0.093168
     16          1           0       -1.064000   -3.051683   -0.168552
     17          8           0        1.750813    0.560275    0.206130
     18         17           0       -3.647705   -1.900270   -0.163684
     19          6           0        3.003782    0.053543   -0.346413
     20          6           0        3.609513   -1.027443    0.527200
     21          1           0        4.468590   -1.527364    0.081115
     22          6           0        2.825742   -0.411172   -1.800089
     23          1           0        3.810363   -0.601446   -2.236505
     24          1           0        2.237241   -1.325409   -1.885751
     25          1           0        2.336258    0.377074   -2.379486
     26          6           0        3.917002    1.290006   -0.307109
     27          1           0        3.970101    1.681286    0.712317
     28          1           0        4.926414    1.025354   -0.634434
     29          1           0        3.523871    2.067696   -0.969196
     30          6           0        3.216861   -1.347779    1.761550
     31          1           0        3.732117   -2.112389    2.334815
     32          1           0        2.362485   -0.864727    2.226963
 ---------------------------------------------------------------------

 SCF Done:  E(RB3LYP) =  -1116.11535869     A.U. after    1 cycles

 The electronic state is 1-A.
 Alpha  occ. eigenvalues -- -101.56137 -19.18779 -10.27006 -10.26621 -10.25717
 Alpha  occ. eigenvalues --  -10.22368 -10.21684 -10.21268 -10.20510 -10.20443
 Alpha  occ. eigenvalues --  -10.20334 -10.20271 -10.20148 -10.20142 -10.19053
 Alpha  occ. eigenvalues --  -10.18646 -10.18528  -9.47613  -7.24002  -7.23061
 Alpha  occ. eigenvalues --   -7.23036  -1.07135  -0.90357  -0.86246  -0.83628
 Alpha  occ. eigenvalues --   -0.81699  -0.76926  -0.75861  -0.75389  -0.72234
 Alpha  occ. eigenvalues --   -0.69824  -0.64524  -0.63665  -0.62247  -0.60198
 Alpha  occ. eigenvalues --   -0.56292  -0.52862  -0.52210  -0.50538  -0.48903
 Alpha  occ. eigenvalues --   -0.48198  -0.46910  -0.44993  -0.44338  -0.43849
 Alpha  occ. eigenvalues --   -0.43628  -0.42283  -0.41839  -0.40849  -0.40206
 Alpha  occ. eigenvalues --   -0.39437  -0.38802  -0.37797  -0.37472  -0.36146
 Alpha  occ. eigenvalues --   -0.35848  -0.35400  -0.34802  -0.32373  -0.32283
 Alpha  occ. eigenvalues --   -0.30762  -0.27552  -0.27086  -0.26148  -0.21704
 Alpha virt. eigenvalues --   -0.05683  -0.03226  -0.00947   0.00054   0.00537
 Alpha virt. eigenvalues --    0.01376   0.01447   0.01780   0.02470   0.02752
 Alpha virt. eigenvalues --    0.03503   0.03783   0.04776   0.05065   0.05548

 Mulliken charges:
               1
     1  C   -0.531507
     2  C   -0.484015
     3  C    0.546498
     4  C   -0.000920
     5  C   -0.058001
     6  C   -0.320528
     7  H    0.148238
     8  H    0.152109
     9  H    0.155045
    10  H    0.146806
    11  C    0.130268
    12  C   -0.086082
    13  C   -0.011696
    14  H    0.153486
    15  C   -0.403409
    16  H    0.160653
    17  O   -0.359775
    18  Cl   0.272790
    19  C    0.286167
    20  C   -0.162742
    21  H    0.146150
    22  C   -0.485191
    23  H    0.168109
    24  H    0.164025
    25  H    0.162626
    26  C   -0.414860
    27  H    0.164318
    28  H    0.164195
    29  H    0.163332
    30  C   -0.256733
    31  H    0.145240
    32  H    0.145402
 Sum of Mulliken charges =   0.00000

 Dipole moment (field-independent basis, Debye):
    X=              4.1161    Y=              0.4963    Z=             -1.0971  Tot=              4.2886
 Quadrupole moment (field-independent basis, Debye-Ang):
   XX=           -101.0427   YY=           -100.9050   ZZ=           -111.4152
   XY=             -9.1746   XZ=             -4.4752   YZ=             -0.4431

  Exact polarizability: 321.279  -7.055 316.669  -2.612   0.905 184.774
 Approx polarizability: 351.745  -9.270 362.868  -4.383   3.961 202.571

                      1                      2                      3
                      A                      A                      A
 Frequencies --     29.5982                51.2222                94.7531
 Red. masses --      4.2419                 4.2528                 3.0042
 Frc consts  --      0.0022                 0.0066                 0.0159
 IR Inten    --      1.5461                 0.2084                 0.7260

                      4                      5                      6
                      A                      A                      A
 Frequencies --    121.5850               122.8653               156.6776
 Red. masses --      3.6683                 3.5852                 4.3378
 Frc consts  --      0.0320                 0.0319                 0.0627
 IR Inten    --      0.2433                 0.2030                 1.7085

                      7                      8                      9
                      A                      A                      A
 Frequencies --    180.7027               192.9551               221.9805
 Red. masses --      4.1580                 4.4642                 1.1506
 Frc consts  --      0.0800                 0.0979                 0.0334
 IR Inten    --      2.2352                 3.0745                 0.4206

                     10                     11                     12
                      A                      A                      A
 Frequencies --    227.7106               274.5409               285.8270
 Red. masses --      5.5786                 2.4106                 1.1855
 Frc consts  --      0.1704                 0.1071                 0.0571
 IR Inten    --      2.2524                 0.9251                 0.8730

                     13                     14                     15
                      A                      A                      A
 Frequencies --    323.7420               335.5412               358.8650
 Red. masses --      2.7093                 3.2998                 4.0979
 Frc consts  --      0.1673                 0.2189                 0.3109
 IR Inten    --      1.3798                 2.7730                 2.2644

                     16                     17                     18
                      A                      A                      A
 Frequencies --    380.3669               412.7294               421.8214
 Red. masses --      2.7818                 4.6943                 3.1302
 Frc consts  --      0.2371                 0.4711                 0.3282
 IR Inten    --      0.2199                 5.9484                10.6680

                     19                     20                     21
                      A                      A                      A
 Frequencies --    450.5931               476.3429               492.5546
 Red. masses --      3.1238                 3.4853                 4.7978
 Frc consts  --      0.3737                 0.4659                 0.6858
 IR Inten    --      1.7291                 1.0246                 6.1663

                     22                     23                     24
                      A                      A                      A
 Frequencies --    530.4578               557.0926               595.1263
 Red. masses --      6.0434                 4.5454                 3.4247
 Frc consts  --      1.0019                 0.8312                 0.7147
 IR Inten    --      8.8554                 3.2626                 7.5069

                     25                     26                     27
                      A                      A                      A
 Frequencies --    598.2866               640.2409               664.0703
 Red. masses --      3.9341                 3.9917                 4.5962
 Frc consts  --      0.8297                 0.9640                 1.1942
 IR Inten    --      3.5053                12.0896                25.4959

                     28                     29                     30
                      A                      A                      A
 Frequencies --    695.1641               731.6663               766.1388
 Red. masses --      2.0088                 4.8151                 3.8952
 Frc consts  --      0.5720                 1.5187                 1.3471
 IR Inten    --     29.1643                 9.0724                27.0730

                     31                     32                     33
                      A                      A                      A
 Frequencies --    770.5114               781.7647               803.3058
 Red. masses --      2.3278                 1.9637                 4.8805
 Frc consts  --      0.8143                 0.7071                 1.8556
 IR Inten    --     48.3764                66.1828                 4.9731

                     34                     35                     36
                      A                      A                      A
 Frequencies --    841.1528               877.5364               883.0437
 Red. masses --      1.3882                 1.5922                 2.5396
 Frc consts  --      0.5787                 0.7224                 1.1667
 IR Inten    --     65.7225                15.7811                91.4403

                     37                     38                     39
                      A                      A                      A
 Frequencies --    935.6679               945.1282               948.0296
 Red. masses --      1.9829                 1.8981                 1.3895
 Frc consts  --      1.0228                 0.9990                 0.7358
 IR Inten    --     23.5902                 5.3077                 7.0633

                     40                     41                     42
                      A                      A                      A
 Frequencies --    952.4855               959.9450               980.4300
 Red. masses --      1.3670                 2.9920                 1.3492
 Frc consts  --      0.7307                 1.6244                 0.7641
 IR Inten    --     69.1843                18.6096                 2.1251

                     43                     44                     45
                      A                      A                      A
 Frequencies --   1006.2196              1023.7660              1033.2358
 Red. masses --      1.2913                 1.1371                 1.2836
 Frc consts  --      0.7703                 0.7022                 0.8074
 IR Inten    --      0.0053                16.7847                10.0346

                     46                     47                     48
                      A                      A                      A
 Frequencies --   1051.6812              1055.1607              1090.8578
 Red. masses --      2.6653                 1.3481                 2.9585
 Frc consts  --      1.7369                 0.8843                 2.0742
 IR Inten    --     45.9593                37.7542               151.5179

                     49                     50                     51
                      A                      A                      A
 Frequencies --   1155.6139              1184.0235              1190.9371
 Red. masses --      2.1685                 1.6724                 1.9334
 Frc consts  --      1.7062                 1.3813                 1.6157
 IR Inten    --      3.0657               147.7557               126.3966

                     52                     53                     54
                      A                      A                      A
 Frequencies --   1193.6827              1206.8329              1228.1436
 Red. masses --      1.3070                 3.3713                 1.6707
 Frc consts  --      1.0972                 2.8929                 1.4847
 IR Inten    --     28.7854                30.0392                38.6061

                     55                     56                     57
                      A                      A                      A
 Frequencies --   1243.4582              1271.7596              1290.1457
 Red. masses --      2.4732                 1.9587                 2.2514
 Frc consts  --      2.2531                 1.8665                 2.2079
 IR Inten    --    182.9860                73.8199               123.5526

                     58                     59                     60
                      A                      A                      A
 Frequencies --   1330.4607              1357.5419              1395.7896
 Red. masses --      1.3013                 4.7169                 6.9553
 Frc consts  --      1.3572                 5.1217                 7.9837
 IR Inten    --      6.3412                35.2965                77.4842

                     61                     62                     63
                      A                      A                      A
 Frequencies --   1403.3374              1407.8118              1422.6703
 Red. masses --      1.2396                 2.0846                 1.2112
 Frc consts  --      1.4383                 2.4343                 1.4443
 IR Inten    --     20.6740               136.0116                18.6640

                     64                     65                     66
                      A                      A                      A
 Frequencies --   1446.9023              1460.6006              1477.2532
 Red. masses --      1.1893                 2.3639                 1.0531
 Frc consts  --      1.4670                 2.9713                 1.3540
 IR Inten    --      9.8356                33.1205                 5.2044

                     67                     68                     69
                      A                      A                      A
 Frequencies --   1481.3668              1486.0768              1492.6444
 Red. masses --      1.0854                 2.1644                 1.0779
 Frc consts  --      1.4033                 2.8163                 1.4149
 IR Inten    --      5.2852                70.9898                 7.5926

                     70                     71                     72
                      A                      A                      A
 Frequencies --   1509.2735              1544.6829              1609.0774
 Red. masses --      1.0640                 3.4196                 7.0748
 Frc consts  --      1.4281                 4.8073                10.7924
 IR Inten    --     15.5499                27.7263                48.5687

                     73                     74                     75
                      A                      A                      A
 Frequencies --   1629.8453              1661.8818              1707.2676
 Red. masses --      5.5272                 6.0797                 4.7840
 Frc consts  --      8.6506                 9.8931                 8.2156
 IR Inten    --    102.8171                 8.0287                 9.6464

                     76                     77                     78
                      A                      A                      A
 Frequencies --   3047.5292              3058.4787              3125.7331
 Red. masses --      1.0343                 1.0370                 1.1035
 Frc consts  --      5.6598                 5.7155                 6.3524
 IR Inten    --     29.5210                27.2730                 6.8657

                     79                     80                     81
                      A                      A                      A
 Frequencies --   3130.8597              3135.6574              3151.3402
 Red. masses --      1.1030                 1.1033                 1.0676
 Frc consts  --      6.3702                 6.3916                 6.2469
 IR Inten    --     55.1440                31.9447                20.3292

                     82                     83                     84
                      A                      A                      A
 Frequencies --   3152.8307              3162.7001              3188.6001
 Red. masses --      1.0989                 1.0843                 1.0874
 Frc consts  --      6.4360                 6.3903                 6.5138
 IR Inten    --     31.4175                12.7852                 8.9529

                     85                     86                     87
                      A                      A                      A
 Frequencies --   3202.1032              3212.3455              3220.9555
 Red. masses --      1.0918                 1.0917                 1.0934
 Frc consts  --      6.5957                 6.6372                 6.6835
 IR Inten    --     24.8806                 7.4406                13.7132

                     88                     89                     90
                      A                      A                      A
 Frequencies --   3228.3096              3244.6595              3252.4705
 Red. masses --      1.0935                 1.1167                 1.0922
 Frc consts  --      6.7145                 6.9267                 6.8072
 IR Inten    --     12.8229                18.6964                 1.6172

 - Thermochemistry -
 -------------------
 Temperature   298.150 Kelvin.  Pressure   1.00000 Atm.
 Atom     1 has atomic number  6 and mass  12.00000

 Molecular mass:   246.08114 amu.
 Principal axes and moments of inertia in atomic units:
                           1         2         3
     Eigenvalues --  2591.097326415.829028204.87111
           X            0.99968  -0.02462  -0.00582
           Y            0.02459   0.99968  -0.00541
           Z            0.00595   0.00527   0.99997
 This molecule is an asymmetric top.
 Rotational symmetry number  1.
 Warning -- assumption of classical behavior for rotation
           may cause significant error
 Rotational temperatures (Kelvin)      0.03343     0.01350     0.01056
 Rotational constants (GHZ):           0.69652     0.28130     0.21996
 Zero-point vibrational energy     679687.0 (Joules/Mol)
                                  162.44909 (Kcal/Mol)
 Warning -- explicit consideration of  25 degrees of freedom as
           vibrations may cause significant error
 Vibrational temperatures:     42.59    73.70   136.33   174.93   176.78
          (Kelvin)            225.42   259.99   277.62   319.38   327.62
                              395.00   411.24   465.79   482.77   516.33
                              547.26   593.82   606.91   648.30   685.35
                              708.68   763.21   801.53   856.25   860.80
                              921.16   955.45  1000.18  1052.70  1102.30
                             1108.59  1124.78  1155.78  1210.23  1262.58
                             1270.50  1346.22  1359.83  1364.00  1370.41
                             1381.14  1410.62  1447.72  1472.97  1486.59
                             1513.13  1518.14  1569.50  1662.67  1703.54
                             1713.49  1717.44  1736.36  1767.02  1789.06
                             1829.78  1856.23  1914.23  1953.20  2008.23
                             2019.09  2025.52  2046.90  2081.77  2101.48
                             2125.44  2131.35  2138.13  2147.58  2171.51
                             2222.45  2315.10  2344.98  2391.07  2456.37
                             4384.71  4400.46  4497.23  4504.60  4511.51
                             4534.07  4536.21  4550.41  4587.68  4607.11
                             4621.84  4634.23  4644.81  4668.34  4679.57

 Zero-point correction=                           0.258879 (Hartree/Particle)
 Thermal correction to Energy=                    0.274464
 Thermal correction to Enthalpy=                  0.275408
 Thermal correction to Gibbs Free Energy=         0.215943
 Sum of electronic and zero-point Energies=          -1115.856480
 Sum of electronic and thermal Energies=             -1115.840895
 Sum of electronic and thermal Enthalpies=           -1115.839950
 Sum of electronic and thermal Free Energies=        -1115.899416

                     E (Thermal)             CV                S
                      KCal/Mol        Cal/Mol-Kelvin    Cal/Mol-Kelvin
 Total                  172.229             61.497            125.156
 Electronic               0.000              0.000              0.000
 Translational            0.889              2.981             42.402
 Rotational               0.889              2.981             33.278
 Vibrational            170.451             55.535             49.476
 Vibration     1          0.593              1.984              5.856
 Vibration     2          0.595              1.977              4.770
 Vibration     3          0.603              1.953              3.559
 Vibration     4          0.609              1.931              3.075
 Vibration     5          0.610              1.930              3.055
 Vibration     6          0.620              1.895              2.590
 Vibration     7          0.630              1.866              2.321
 Vibration     8          0.635              1.850              2.199
 Vibration     9          0.648              1.808              1.943
 Vibration    10          0.651              1.799              1.897
 Vibration    11          0.677              1.720              1.567
 Vibration    12          0.684              1.700              1.499
 Vibration    13          0.708              1.628              1.291
 Vibration    14          0.717              1.605              1.233
 Vibration    15          0.734              1.557              1.127
 Vibration    16          0.750              1.512              1.038
 Vibration    17          0.777              1.443              0.917
 Vibration    18          0.784              1.423              0.886
 Vibration    19          0.809              1.360              0.794
 Vibration    20          0.833              1.303              0.720
 Vibration    21          0.848              1.267              0.677
 Vibration    22          0.885              1.183              0.586
 Vibration    23          0.913              1.124              0.530
 Vibration    24          0.953              1.042              0.458
 Vibration    25          0.956              1.035              0.453

 Optimization completed.
    -- Stationary point found.
 Normal termination of Gaussian 09 at Thu Aug 27 19:23:13 2020.
