 Gaussian 09, Revision D.01,
 Gaussian 09:  ES64L-G09RevD.01 24-Apr-2013

 ----------------------------------------------------------------------
 # freq b3lyp/6-31+g(d,p) scrf=(cpcm,solvent=water) geom=connectivity e
 mpiricaldispersion=gd3
 ----------------------------------------------------------------------

 -------------------
 Title Card Required
 -------------------
 Symbolic Z-matrix:
 Charge =  0 Multiplicity = 1

                         Standard orientation:
 ---------------------------------------------------------------------
 Center     Atomic      Atomic             Coordinates (Angstroms)
 Number     Number       Type             X           Y           Z
 ---------------------------------------------------------------------
      1          6           0       -2.261569    2.716833    0.365967
      2          6           0       -2.609536    1.377336    0.349135
      3          6           0       -1.689480    0.390762   -0.090731
      4          6           0       -0.385362    0.808430   -0.507264
      5          6           0       -0.066349    2.183504   -0.492379
      6          6           0       -0.981499    3.128195   -0.061450
      7          1           0       -2.982596    3.454402    0.705994
      8          1           0       -3.599374    1.074856    0.671191
      9          1           0        0.923961    2.476133   -0.823569
     10          1           0       -0.716829    4.181257   -0.051003
     11          6           0        0.602230   -0.166973   -0.989090
     12          6           0       -1.996510   -1.013151   -0.151170
     13          6           0        0.223965   -1.540540   -0.960899
     14          1           0        0.886239   -2.260895   -1.425057
     15          6           0       -1.088374   -1.938948   -0.591420
     16          1           0       -1.360538   -2.988162   -0.638165
     17          8           0        1.778988    0.193413   -1.339098
     18         17           0       -3.602570   -1.578570    0.336866
     19          6           0        3.199262   -0.153094    0.466873
     20          6           0        2.783690   -1.488973    0.577729
     21          1           0        3.375945   -2.233960    0.051068
     22          6           0        4.471867    0.171460   -0.250107
     23          1           0        4.842207   -0.668205   -0.842333
     24          1           0        4.316739    1.032886   -0.907080
     25          1           0        5.243705    0.457296    0.477873
     26          6           0        2.627591    0.945180    1.311759
     27          1           0        1.565714    0.818852    1.524370
     28          1           0        3.162619    0.956146    2.271615
     29          1           0        2.775139    1.917457    0.837976
     30          6           0        1.563992   -1.883423    1.085726
     31          1           0        1.290452   -2.932131    1.104462
     32          1           0        0.924894   -1.217139    1.652637
 ---------------------------------------------------------------------

 SCF Done:  E(RB3LYP) =  -1116.08478889     A.U. after   16 cycles

 The electronic state is 1-A.
 Alpha  occ. eigenvalues -- -101.56099 -19.13150 -10.25710 -10.25321 -10.25310
 Alpha  occ. eigenvalues --  -10.22514 -10.22178 -10.20977 -10.20841 -10.20483
 Alpha  occ. eigenvalues --  -10.20395 -10.20284 -10.20155 -10.20106 -10.19988
 Alpha  occ. eigenvalues --  -10.19229 -10.19178  -9.47570  -7.23956  -7.23024
 Alpha  occ. eigenvalues --   -7.22994  -1.00965  -0.89837  -0.85797  -0.84127
 Alpha  occ. eigenvalues --   -0.81651  -0.76406  -0.76186  -0.75270  -0.70905
 Alpha  occ. eigenvalues --   -0.70293  -0.63950  -0.63307  -0.62721  -0.57865
 Alpha  occ. eigenvalues --   -0.53854  -0.52169  -0.51826  -0.49831  -0.48853
 Alpha  occ. eigenvalues --   -0.46760  -0.46231  -0.45988  -0.44227  -0.43346
 Alpha  occ. eigenvalues --   -0.42770  -0.41753  -0.41504  -0.40914  -0.39793
 Alpha  occ. eigenvalues --   -0.39165  -0.38981  -0.37648  -0.37378  -0.36335
 Alpha  occ. eigenvalues --   -0.36143  -0.35972  -0.34887  -0.32205  -0.30764
 Alpha  occ. eigenvalues --   -0.29639  -0.26975  -0.25942  -0.24989  -0.20703
 Alpha virt. eigenvalues --   -0.09382  -0.04725  -0.02658   0.00036   0.00369
 Alpha virt. eigenvalues --    0.01268   0.01567   0.01820   0.02674   0.02709
 Alpha virt. eigenvalues --    0.03080   0.03494   0.04040   0.04814   0.05074

 Mulliken charges:
               1
     1  C   -0.474704
     2  C   -0.358817
     3  C    0.620079
     4  C    0.351148
     5  C   -0.436944
     6  C   -0.296616
     7  H    0.146153
     8  H    0.150728
     9  H    0.148801
    10  H    0.144397
    11  C   -0.241403
    12  C   -0.117039
    13  C    0.176689
    14  H    0.160736
    15  C   -0.294481
    16  H    0.154038
    17  O   -0.536961
    18  Cl   0.220270
    19  C    0.537549
    20  C   -0.034639
    21  H    0.138235
    22  C   -0.511969
    23  H    0.158850
    24  H    0.182697
    25  H    0.177518
    26  C   -0.656559
    27  H    0.161017
    28  H    0.183057
    29  H    0.169422
    30  C   -0.373652
    31  H    0.178619
    32  H    0.173780
 Sum of Mulliken charges =   0.00000

 Dipole moment (field-independent basis, Debye):
    X=              3.9555    Y=             -0.3801    Z=              3.4407  Tot=              5.2564
 Quadrupole moment (field-independent basis, Debye-Ang):
   XX=           -102.1039   YY=            -95.4580   ZZ=           -114.6887
   XY=             -5.5330   XZ=              4.5178   YZ=              3.3001

  Exact polarizability: 445.063 -10.829 333.277   8.761   0.974 207.124
 Approx polarizability: 498.134  -0.325 386.100   8.008  -1.258 248.812

 ******    1 imaginary frequencies (negative Signs) ******

                      1                      2                      3
                      A                      A                      A
 Frequencies --   -176.4269                42.2810                68.2402
 Red. masses --      6.3908                 3.8083                 4.7121
 Frc consts  --      0.1172                 0.0040                 0.0129
 IR Inten    --     46.4094                 0.0734                 1.4188

                      4                      5                      6
                      A                      A                      A
 Frequencies --     74.8604               128.5016               146.9449
 Red. masses --      5.6527                 4.4163                 1.7484
 Frc consts  --      0.0187                 0.0430                 0.0222
 IR Inten    --      2.4535                 1.1247                11.8493

                      7                      8                      9
                      A                      A                      A
 Frequencies --    157.3446               169.8664               182.4446
 Red. masses --      1.7797                 1.7218                 1.7894
 Frc consts  --      0.0260                 0.0293                 0.0351
 IR Inten    --     23.8798                 1.5354                 6.0634

                     10                     11                     12
                      A                      A                      A
 Frequencies --    202.4091               225.5365               249.0493
 Red. masses --      3.1311                 9.1557                 6.0714
 Frc consts  --      0.0756                 0.2744                 0.2219
 IR Inten    --     12.6822                 6.9108                23.7729

                     13                     14                     15
                      A                      A                      A
 Frequencies --    301.6316               324.8979               334.2820
 Red. masses --      2.5984                 2.8310                 7.6863
 Frc consts  --      0.1393                 0.1761                 0.5060
 IR Inten    --     20.2559                 7.1688                34.1491

                     16                     17                     18
                      A                      A                      A
 Frequencies --    350.1823               377.2868               414.2654
 Red. masses --      4.5864                 8.6206                 2.3660
 Frc consts  --      0.3314                 0.7230                 0.2392
 IR Inten    --      4.7968                 1.2303                 1.6589

                     19                     20                     21
                      A                      A                      A
 Frequencies --    427.8284               448.5292               479.7674
 Red. masses --      2.7261                 2.3347                 4.0698
 Frc consts  --      0.2940                 0.2767                 0.5519
 IR Inten    --      8.3178                 2.6469                 0.3259

                     22                     23                     24
                      A                      A                      A
 Frequencies --    483.6632               529.4054               539.9336
 Red. masses --      6.2995                 6.4559                 2.7813
 Frc consts  --      0.8682                 1.0661                 0.4777
 IR Inten    --      3.4604                15.0877                 4.3482

                     25                     26                     27
                      A                      A                      A
 Frequencies --    579.1777               595.8029               651.6397
 Red. masses --      5.4011                 3.5323                 7.4041
 Frc consts  --      1.0675                 0.7388                 1.8524
 IR Inten    --      6.7746                 1.3569                59.4010

                     28                     29                     30
                      A                      A                      A
 Frequencies --    688.2458               716.6981               737.9398
 Red. masses --      3.4340                 1.3369                 6.2636
 Frc consts  --      0.9584                 0.4046                 2.0096
 IR Inten    --     12.8869                23.0637                20.6818

                     31                     32                     33
                      A                      A                      A
 Frequencies --    775.8365               782.0105               790.9982
 Red. masses --      1.7534                 2.9394                 4.1107
 Frc consts  --      0.6218                 1.0591                 1.5153
 IR Inten    --     83.5255                11.8819                 4.4406

                     34                     35                     36
                      A                      A                      A
 Frequencies --    798.4636               856.5198               886.9529
 Red. masses --      3.1046                 1.3013                 1.5004
 Frc consts  --      1.1662                 0.5625                 0.6955
 IR Inten    --     25.0503                99.8180                 2.2563

                     37                     38                     39
                      A                      A                      A
 Frequencies --    923.9438               930.1920               943.4485
 Red. masses --      1.2403                 1.2518                 5.8205
 Frc consts  --      0.6239                 0.6382                 3.0525
 IR Inten    --     58.1572                 8.0395                73.6026

                     40                     41                     42
                      A                      A                      A
 Frequencies --    979.0198               983.1221               996.8963
 Red. masses --      1.3047                 1.3565                 1.2970
 Frc consts  --      0.7368                 0.7725                 0.7594
 IR Inten    --     15.0889                 4.1330                 6.4866

                     43                     44                     45
                      A                      A                      A
 Frequencies --   1002.1400              1007.0647              1014.8996
 Red. masses --      1.3362                 1.2949                 1.2925
 Frc consts  --      0.7906                 0.7737                 0.7844
 IR Inten    --     16.5865                 0.2215                10.1793

                     46                     47                     48
                      A                      A                      A
 Frequencies --   1051.0656              1073.2471              1083.5327
 Red. masses --      2.7807                 1.6504                 2.3335
 Frc consts  --      1.8099                 1.1200                 1.6142
 IR Inten    --     45.4539               138.0880                17.9587

                     49                     50                     51
                      A                      A                      A
 Frequencies --   1089.5199              1134.5153              1168.8316
 Red. masses --      1.5033                 1.9976                 1.5626
 Frc consts  --      1.0514                 1.5149                 1.2578
 IR Inten    --      6.5599                30.2774                 6.7442

                     52                     53                     54
                      A                      A                      A
 Frequencies --   1183.7020              1216.6406              1253.7511
 Red. masses --      1.2727                 1.7484                 2.7755
 Frc consts  --      1.0507                 1.5248                 2.5705
 IR Inten    --     21.9721                41.3922                19.2321

                     55                     56                     57
                      A                      A                      A
 Frequencies --   1269.9621              1300.6881              1326.9949
 Red. masses --      1.6676                 1.7421                 3.9081
 Frc consts  --      1.5847                 1.7365                 4.0546
 IR Inten    --     20.0223                40.2820                13.2349

                     58                     59                     60
                      A                      A                      A
 Frequencies --   1343.8933              1367.9897              1376.1752
 Red. masses --      2.1895                 1.5860                 4.8400
 Frc consts  --      2.3299                 1.7487                 5.4006
 IR Inten    --     33.2272                71.2962                14.8446

                     61                     62                     63
                      A                      A                      A
 Frequencies --   1398.2710              1412.6979              1424.7480
 Red. masses --      1.2715                 1.4274                 2.7702
 Frc consts  --      1.4647                 1.6784                 3.3131
 IR Inten    --     20.9591                42.3883                39.3367

                     64                     65                     66
                      A                      A                      A
 Frequencies --   1455.5007              1461.9638              1471.0258
 Red. masses --      1.1475                 1.1793                 2.0474
 Frc consts  --      1.4323                 1.4851                 2.6103
 IR Inten    --     34.4470                56.0370                12.5431

                     67                     68                     69
                      A                      A                      A
 Frequencies --   1473.8439              1478.8359              1503.7468
 Red. masses --      1.2614                 2.1497                 1.2113
 Frc consts  --      1.6144                 2.7699                 1.6138
 IR Inten    --     41.3784                81.9730               144.0326

                     70                     71                     72
                      A                      A                      A
 Frequencies --   1514.6855              1530.7477              1566.3508
 Red. masses --      1.6160                 2.7117                 3.3328
 Frc consts  --      2.1845                 3.7436                 4.8177
 IR Inten    --     75.9854                45.2772                61.7265

                     73                     74                     75
                      A                      A                      A
 Frequencies --   1605.3187              1615.5936              1652.0304
 Red. masses --      5.0816                 4.4331                 5.7362
 Frc consts  --      7.7156                 6.8175                 9.2239
 IR Inten    --    109.6753               229.5975                12.0194

                     76                     77                     78
                      A                      A                      A
 Frequencies --   3025.2992              3030.4697              3095.1872
 Red. masses --      1.0447                 1.0497                 1.0907
 Frc consts  --      5.6334                 5.6798                 6.1567
 IR Inten    --     19.3968                53.5373                12.5854

                     79                     80                     81
                      A                      A                      A
 Frequencies --   3114.2681              3138.9514              3159.0366
 Red. masses --      1.0839                 1.1036                 1.1027
 Frc consts  --      6.1939                 6.4066                 6.4838
 IR Inten    --      9.3043                26.9914                12.8886

                     82                     83                     84
                      A                      A                      A
 Frequencies --   3168.9155              3185.5160              3186.4785
 Red. masses --      1.0870                 1.0613                 1.0870
 Frc consts  --      6.4313                 6.3455                 6.5029
 IR Inten    --     41.9613                10.8997                 7.9437

                     85                     86                     87
                      A                      A                      A
 Frequencies --   3200.1045              3205.1325              3217.4092
 Red. masses --      1.0914                 1.0906                 1.0924
 Frc consts  --      6.5849                 6.6013                 6.6625
 IR Inten    --     24.9100                11.4484                14.0916

                     88                     89                     90
                      A                      A                      A
 Frequencies --   3220.6705              3227.8009              3276.8306
 Red. masses --      1.0945                 1.0925                 1.1171
 Frc consts  --      6.6888                 6.7064                 7.0675
 IR Inten    --     22.1963                 6.9077                 3.5861

 - Thermochemistry -
 -------------------
 Temperature   298.150 Kelvin.  Pressure   1.00000 Atm.
 Atom     1 has atomic number  6 and mass  12.00000

 Molecular mass:   246.08114 amu.
 Principal axes and moments of inertia in atomic units:
                           1         2         3
     Eigenvalues --  2686.835925670.830267434.49207
           X            0.99979  -0.02030   0.00394
           Y            0.02025   0.99972   0.01223
           Z           -0.00418  -0.01215   0.99992
 This molecule is an asymmetric top.
 Rotational symmetry number  1.
 Warning -- assumption of classical behavior for rotation
           may cause significant error
 Rotational temperatures (Kelvin)      0.03224     0.01527     0.01165
 Rotational constants (GHZ):           0.67170     0.31825     0.24275
    1 imaginary frequencies ignored.
 Zero-point vibrational energy     673247.0 (Joules/Mol)
                                  160.90989 (Kcal/Mol)
 Warning -- explicit consideration of  25 degrees of freedom as
           vibrations may cause significant error
 Vibrational temperatures:     60.83    98.18   107.71   184.88   211.42
          (Kelvin)            226.38   244.40   262.50   291.22   324.50
                              358.33   433.98   467.46   480.96   503.83
                              542.83   596.03   615.55   645.33   690.28
                              695.88   761.70   776.84   833.31   857.23
                              937.56   990.23  1031.17  1061.73  1116.25
                             1125.14  1138.07  1148.81  1232.34  1276.13
                             1329.35  1338.34  1357.41  1408.59  1414.49
                             1434.31  1441.85  1448.94  1460.21  1512.25
                             1544.16  1558.96  1567.57  1632.31  1681.69
                             1703.08  1750.47  1803.87  1827.19  1871.40
                             1909.25  1933.56  1968.23  1980.01  2011.80
                             2032.55  2049.89  2094.14  2103.44  2116.48
                             2120.53  2127.71  2163.55  2179.29  2202.40
                             2253.63  2309.69  2324.48  2376.90  4352.73
                             4360.16  4453.28  4480.73  4516.25  4545.14
                             4559.36  4583.24  4584.63  4604.23  4611.47
                             4629.13  4633.82  4644.08  4714.62

 Zero-point correction=                           0.256426 (Hartree/Particle)
 Thermal correction to Energy=                    0.271957
 Thermal correction to Enthalpy=                  0.272901
 Thermal correction to Gibbs Free Energy=         0.213959
 Sum of electronic and zero-point Energies=          -1115.828363
 Sum of electronic and thermal Energies=             -1115.812832
 Sum of electronic and thermal Enthalpies=           -1115.811888
 Sum of electronic and thermal Free Energies=        -1115.870830

                     E (Thermal)             CV                S
                      KCal/Mol        Cal/Mol-Kelvin    Cal/Mol-Kelvin
 Total                  170.655             60.982            124.053
 Electronic               0.000              0.000              0.000
 Translational            0.889              2.981             42.402
 Rotational               0.889              2.981             33.093
 Vibrational            168.878             55.021             48.557
 Vibration     1          0.595              1.980              5.149
 Vibration     2          0.598              1.969              4.203
 Vibration     3          0.599              1.966              4.021
 Vibration     4          0.611              1.925              2.968
 Vibration     5          0.617              1.906              2.711
 Vibration     6          0.621              1.894              2.581
 Vibration     7          0.625              1.880              2.437
 Vibration     8          0.630              1.864              2.303
 Vibration     9          0.639              1.836              2.111
 Vibration    10          0.650              1.802              1.914
 Vibration    11          0.662              1.764              1.737
 Vibration    12          0.694              1.671              1.408
 Vibration    13          0.709              1.626              1.285
 Vibration    14          0.716              1.607              1.239
 Vibration    15          0.727              1.575              1.165
 Vibration    16          0.748              1.519              1.050
 Vibration    17          0.778              1.439              0.912
 Vibration    18          0.789              1.410              0.866
 Vibration    19          0.808              1.364              0.800
 Vibration    20          0.836              1.295              0.711
 Vibration    21          0.840              1.286              0.700
 Vibration    22          0.884              1.185              0.589
 Vibration    23          0.895              1.162              0.565
 Vibration    24          0.936              1.076              0.487
 Vibration    25          0.954              1.041              0.457

 Normal termination of Gaussian 09 at Thu Aug 27 21:42:58 2020.
