 Gaussian 09, Revision D.01,
 Gaussian 09:  ES64L-G09RevD.01 24-Apr-2013

 ----------------------------------------------------------------------
 # freq scrf=(cpcm,solvent=water) geom=connectivity def2svp empiricaldi
 spersion=gd3 m062x
 ----------------------------------------------------------------------

 -------------------
 Title Card Required
 -------------------
 Symbolic Z-matrix:
 Charge =  0 Multiplicity = 1

                         Standard orientation:
 ---------------------------------------------------------------------
 Center     Atomic      Atomic             Coordinates (Angstroms)
 Number     Number       Type             X           Y           Z
 ---------------------------------------------------------------------
      1          6           0       -2.445700    0.791069   -0.599968
      2          6           0       -1.491413   -0.228798   -1.125992
      3          6           0       -0.210197    0.212117   -0.838153
      4          6           0       -0.326982    1.525658   -0.139103
      5          1           0       -1.785311   -0.898560   -1.929587
      6          1           0        0.700911   -0.047797   -1.371890
      7          6           0       -2.240044    2.908487    0.724467
      8          1           0       -2.797734    2.621032    1.625618
      9          1           0       -1.407482    3.563859    1.003541
     10          1           0       -2.915172    3.439887    0.040935
     11          7           0       -1.682510    1.746122    0.071317
     12          8           0        0.556011    2.280859    0.203235
     13          8           0       -3.648910    0.837984   -0.698331
     14          6           0       -0.970724   -2.638964    0.257408
     15          1           0       -1.066733   -3.597766   -0.260855
     16          6           0        0.324953   -2.174075    0.549224
     17          1           0        1.178719   -2.774425    0.225054
     18          6           0       -2.100399   -1.855569    0.393172
     19          1           0       -2.076835   -1.030810    1.112259
     20          6           0       -3.462471   -2.319907   -0.019998
     21          1           0       -4.036675   -1.492710   -0.460825
     22          1           0       -3.398929   -3.144072   -0.743039
     23          1           0       -4.025033   -2.670124    0.859906
     24          6           0        0.565800   -0.893590    1.002393
     25          1           0       -0.203279   -0.372528    1.579782
     26          6           0        1.950195   -0.352233    1.194656
     27          1           0        2.342088   -0.656031    2.180265
     28          1           0        1.914284    0.743265    1.169954
     29          6           0        3.787946   -0.150237   -0.384264
     30          6           0        3.918788    1.299013    0.004139
     31          1           0        4.129085    1.394548    1.078663
     32          1           0        4.744170    1.728679   -0.570534
     33          1           0        2.986031    1.843044   -0.205596
     34          8           0        2.804260   -0.873537    0.184478
     35          8           0        4.500758   -0.696576   -1.181976
 ---------------------------------------------------------------------

 SCF Done:  E(RM062X) =  -860.230129183     A.U. after   15 cycles

 The electronic state is 1-A.
 Alpha  occ. eigenvalues --  -19.68015 -19.63683 -19.63342 -19.62165 -14.80687
 Alpha  occ. eigenvalues --  -10.69384 -10.68306 -10.67970 -10.62174 -10.59260
 Alpha  occ. eigenvalues --  -10.58822 -10.58693 -10.58406 -10.58143 -10.56558
 Alpha  occ. eigenvalues --  -10.56308 -10.56232 -10.55149  -1.22366  -1.18883
 Alpha  occ. eigenvalues --   -1.16864  -1.13392  -1.06342  -0.93839  -0.90667
 Alpha  occ. eigenvalues --   -0.88097  -0.83769  -0.82057  -0.79132  -0.76301
 Alpha  occ. eigenvalues --   -0.74348  -0.69844  -0.69090  -0.65729  -0.62919
 Alpha  occ. eigenvalues --   -0.60269  -0.58691  -0.58519  -0.57792  -0.57369
 Alpha  occ. eigenvalues --   -0.56850  -0.54521  -0.54105  -0.52318  -0.51994
 Alpha  occ. eigenvalues --   -0.51352  -0.50636  -0.50199  -0.49201  -0.48157
 Alpha  occ. eigenvalues --   -0.47886  -0.46937  -0.46481  -0.46132  -0.45584
 Alpha  occ. eigenvalues --   -0.45132  -0.42971  -0.42437  -0.41624  -0.41155
 Alpha  occ. eigenvalues --   -0.37448  -0.37353  -0.35624  -0.34610  -0.34161
 Alpha  occ. eigenvalues --   -0.30320  -0.28617
 Alpha virt. eigenvalues --   -0.04132  -0.00996   0.05443   0.07789   0.08916
 Alpha virt. eigenvalues --    0.10118   0.10425   0.11224   0.13111   0.13828
 Alpha virt. eigenvalues --    0.14174   0.14652   0.15252   0.16420   0.16674

 Mulliken charges:
               1
     1  C    0.271426
     2  C   -0.115545
     3  C   -0.125507
     4  C    0.286505
     5  H    0.068608
     6  H    0.066976
     7  C    0.071012
     8  H    0.076054
     9  H    0.072797
    10  H    0.072662
    11  N   -0.382747
    12  O   -0.270804
    13  O   -0.267845
    14  C   -0.035966
    15  H    0.043347
    16  C   -0.011273
    17  H    0.047448
    18  C   -0.132127
    19  H    0.064187
    20  C    0.002057
    21  H    0.057110
    22  H    0.055024
    23  H    0.072685
    24  C   -0.142440
    25  H    0.075394
    26  C    0.227255
    27  H    0.087934
    28  H    0.067071
    29  C    0.192941
    30  C   -0.125756
    31  H    0.099725
    32  H    0.075396
    33  H    0.093670
    34  O   -0.350946
    35  O   -0.286329
 Sum of Mulliken charges =   0.00000

 Dipole moment (field-independent basis, Debye):
    X=             -2.4714    Y=              0.3394    Z=              3.7511  Tot=              4.5049
 Quadrupole moment (field-independent basis, Debye-Ang):
   XX=           -131.0081   YY=           -103.0086   ZZ=           -103.9044
   XY=             11.4486   XZ=              7.8126   YZ=              1.7617

  Exact polarizability: 261.985  10.532 230.881   9.226   0.083 158.932
 Approx polarizability: 246.220   9.896 215.897  11.827  -2.552 160.893

 ******    1 imaginary frequencies (negative Signs) ******

                      1                      2                      3
                      A                      A                      A
 Frequencies --   -426.1954                34.5655                43.6117
 Red. masses --      8.4993                 6.1704                 5.5199
 Frc consts  --      0.9096                 0.0043                 0.0062
 IR Inten    --     20.0410                 7.8633                 1.0326

                      4                      5                      6
                      A                      A                      A
 Frequencies --     58.7655                81.9034                95.6762
 Red. masses --      5.1889                 4.2426                 3.4656
 Frc consts  --      0.0106                 0.0168                 0.0187
 IR Inten    --      1.4263                 7.6425                 2.6148

                      7                      8                      9
                      A                      A                      A
 Frequencies --    100.0109               117.9686               153.3401
 Red. masses --      1.0374                 5.9945                 3.5485
 Frc consts  --      0.0061                 0.0492                 0.0492
 IR Inten    --      0.2663                 1.1674                 0.1168

                     10                     11                     12
                      A                      A                      A
 Frequencies --    161.1722               175.1344               179.0610
 Red. masses --      4.5413                 5.1677                 1.5642
 Frc consts  --      0.0695                 0.0934                 0.0295
 IR Inten    --      3.5209                11.3372                 0.4303

                     13                     14                     15
                      A                      A                      A
 Frequencies --    197.5043               211.3480               242.0932
 Red. masses --      3.8620                 4.5216                 1.5039
 Frc consts  --      0.0888                 0.1190                 0.0519
 IR Inten    --      3.7786                 2.2212                 7.4063

                     16                     17                     18
                      A                      A                      A
 Frequencies --    256.0343               279.8030               286.3462
 Red. masses --      2.9642                 2.7075                 2.8878
 Frc consts  --      0.1145                 0.1249                 0.1395
 IR Inten    --      5.9806                 4.2684                 3.8079

                     19                     20                     21
                      A                      A                      A
 Frequencies --    310.0258               343.9490               368.1384
 Red. masses --      2.6084                 1.7472                 3.0555
 Frc consts  --      0.1477                 0.1218                 0.2440
 IR Inten    --      0.2112                 4.1069                 1.0789

                     22                     23                     24
                      A                      A                      A
 Frequencies --    405.4085               434.6850               468.7295
 Red. masses --      8.5520                 3.9728                 2.9940
 Frc consts  --      0.8281                 0.4423                 0.3876
 IR Inten    --     52.8301                19.2591                 1.9002

                     25                     26                     27
                      A                      A                      A
 Frequencies --    489.1603               546.7923               590.8455
 Red. masses --      2.8616                 4.5457                 2.4054
 Frc consts  --      0.4034                 0.8008                 0.4948
 IR Inten    --      2.8700                 9.4918                 6.4253

                     28                     29                     30
                      A                      A                      A
 Frequencies --    613.4706               618.8599               628.1460
 Red. masses --      4.8884                 9.1027                 3.8036
 Frc consts  --      1.0839                 2.0540                 0.8842
 IR Inten    --     27.1185                11.4552                 8.9129

                     31                     32                     33
                      A                      A                      A
 Frequencies --    711.6389               721.2849               738.3199
 Red. masses --      3.8256                 7.2716                 3.1818
 Frc consts  --      1.1415                 2.2289                 1.0219
 IR Inten    --      6.5001                68.7036                10.9923

                     34                     35                     36
                      A                      A                      A
 Frequencies --    777.3506               780.1061               795.1486
 Red. masses --      7.6140                 2.4330                 2.0955
 Frc consts  --      2.7108                 0.8724                 0.7806
 IR Inten    --      7.1125                 2.6986                25.5631

                     37                     38                     39
                      A                      A                      A
 Frequencies --    835.4127               867.1391               911.7402
 Red. masses --      1.7335                 2.0058                 1.5876
 Frc consts  --      0.7128                 0.8886                 0.7775
 IR Inten    --      4.2217                 8.0574                 8.6709

                     40                     41                     42
                      A                      A                      A
 Frequencies --    932.1480               960.5984               976.7360
 Red. masses --      1.4863                 1.2993                 1.3153
 Frc consts  --      0.7609                 0.7064                 0.7393
 IR Inten    --      7.5058                13.0548               156.7474

                     43                     44                     45
                      A                      A                      A
 Frequencies --    980.7795               993.3156              1022.1610
 Red. masses --      1.7183                 1.5660                 1.8519
 Frc consts  --      0.9738                 0.9103                 1.1400
 IR Inten    --     91.7696                26.9950                23.1827

                     46                     47                     48
                      A                      A                      A
 Frequencies --   1028.0607              1031.5556              1054.4240
 Red. masses --      1.2953                 1.4534                 1.5411
 Frc consts  --      0.8066                 0.9112                 1.0095
 IR Inten    --      9.6883                51.6902                12.8251

                     49                     50                     51
                      A                      A                      A
 Frequencies --   1058.9274              1066.6599              1110.7659
 Red. masses --      1.7289                 1.3825                 1.5971
 Frc consts  --      1.1422                 0.9268                 1.1610
 IR Inten    --     16.0387                20.6922                13.3878

                     52                     53                     54
                      A                      A                      A
 Frequencies --   1124.2875              1145.8835              1168.2985
 Red. masses --      2.1697                 1.3200                 2.8817
 Frc consts  --      1.6158                 1.0212                 2.3174
 IR Inten    --     42.4441                 0.9536                25.6189

                     55                     56                     57
                      A                      A                      A
 Frequencies --   1171.2239              1182.8873              1251.0740
 Red. masses --      4.5019                 2.2254                 1.4985
 Frc consts  --      3.6386                 1.8346                 1.3819
 IR Inten    --    133.3972                45.7128               403.8356

                     58                     59                     60
                      A                      A                      A
 Frequencies --   1272.3617              1278.9023              1298.0516
 Red. masses --      1.4157                 1.3159                 3.3244
 Frc consts  --      1.3503                 1.2681                 3.3003
 IR Inten    --     81.1305                 8.2814                90.3823

                     61                     62                     63
                      A                      A                      A
 Frequencies --   1318.6550              1323.3750              1327.3490
 Red. masses --      1.3838                 1.6142                 1.9342
 Frc consts  --      1.4177                 1.6656                 2.0078
 IR Inten    --     49.8423               180.2787                26.0770

                     64                     65                     66
                      A                      A                      A
 Frequencies --   1370.8022              1391.5154              1397.6460
 Red. masses --      2.1810                 1.3995                 1.6907
 Frc consts  --      2.4147                 1.5966                 1.9459
 IR Inten    --     15.9501                13.6492               308.7342

                     67                     68                     69
                      A                      A                      A
 Frequencies --   1417.5617              1421.2652              1443.3230
 Red. masses --      1.3096                 1.3048                 1.0629
 Frc consts  --      1.5505                 1.5528                 1.3045
 IR Inten    --     27.3777                15.6136                18.9768

                     70                     71                     72
                      A                      A                      A
 Frequencies --   1449.4835              1450.2592              1455.1964
 Red. masses --      1.0905                 1.0696                 1.0851
 Frc consts  --      1.3499                 1.3255                 1.3538
 IR Inten    --     31.0809                21.1696                60.9939

                     73                     74                     75
                      A                      A                      A
 Frequencies --   1458.9089              1474.5027              1488.2108
 Red. masses --      1.1252                 1.4099                 1.1084
 Frc consts  --      1.4110                 1.8061                 1.4463
 IR Inten    --     14.6632               271.5207                33.8256

                     76                     77                     78
                      A                      A                      A
 Frequencies --   1492.0609              1502.8351              1647.0552
 Red. masses --      3.6619                 2.4198                 5.0765
 Frc consts  --      4.8032                 3.2200                 8.1139
 IR Inten    --     41.5830               338.4305                41.0096

                     79                     80                     81
                      A                      A                      A
 Frequencies --   1656.7418              1815.5981              1891.8342
 Red. masses --      4.5907                12.1475                11.9051
 Frc consts  --      7.4240                23.5926                25.1044
 IR Inten    --     26.9863              1590.8323               671.6596

                     82                     83                     84
                      A                      A                      A
 Frequencies --   1892.0145              3050.9752              3069.0682
 Red. masses --     11.9710                 1.0379                 1.0450
 Frc consts  --     25.2481                 5.6921                 5.7996
 IR Inten    --    177.2912                23.8350                 9.1537

                     85                     86                     87
                      A                      A                      A
 Frequencies --   3070.2848              3075.6244              3135.5018
 Red. masses --      1.0624                 1.0339                 1.1004
 Frc consts  --      5.9005                 5.7625                 6.3742
 IR Inten    --     21.2233                42.5649                 6.1211

                     88                     89                     90
                      A                      A                      A
 Frequencies --   3160.0364              3163.8816              3166.7491
 Red. masses --      1.1032                 1.1019                 1.1081
 Frc consts  --      6.4908                 6.4990                 6.5473
 IR Inten    --      5.7123                 1.9628                10.7223

                     91                     92                     93
                      A                      A                      A
 Frequencies --   3173.9474              3175.2630              3181.8052
 Red. masses --      1.0960                 1.0942                 1.0895
 Frc consts  --      6.5054                 6.4999                 6.4988
 IR Inten    --      0.2105                11.6798                14.5325

                     94                     95                     96
                      A                      A                      A
 Frequencies --   3185.7413              3202.5292              3207.6596
 Red. masses --      1.0903                 1.1056                 1.1064
 Frc consts  --      6.5193                 6.6808                 6.7070
 IR Inten    --      9.8216                 0.1899                 2.0618

                     97                     98                     99
                      A                      A                      A
 Frequencies --   3208.8985              3260.2560              3274.5136
 Red. masses --      1.0926                 1.0924                 1.1026
 Frc consts  --      6.6285                 6.8413                 6.9658
 IR Inten    --      3.8540                 0.2961                 4.9030

 - Thermochemistry -
 -------------------
 Temperature   298.150 Kelvin.  Pressure   1.00000 Atm.
 Atom     1 has atomic number  6 and mass  12.00000

 Molecular mass:   251.11576 amu.
 Principal axes and moments of inertia in atomic units:
                           1         2         3
     Eigenvalues --  2788.553526216.428078109.87928
           X            0.99956   0.02970   0.00270
           Y           -0.02974   0.99942   0.01628
           Z           -0.00222  -0.01636   0.99986
 This molecule is an asymmetric top.
 Rotational symmetry number  1.
 Warning -- assumption of classical behavior for rotation
           may cause significant error
 Rotational temperatures (Kelvin)      0.03106     0.01393     0.01068
 Rotational constants (GHZ):           0.64720     0.29032     0.22254
    1 imaginary frequencies ignored.
 Zero-point vibrational energy     751187.4 (Joules/Mol)
                                  179.53809 (Kcal/Mol)
 Warning -- explicit consideration of  28 degrees of freedom as
           vibrations may cause significant error
 Vibrational temperatures:     49.73    62.75    84.55   117.84   137.66
          (Kelvin)            143.89   169.73   220.62   231.89   251.98
                              257.63   284.16   304.08   348.32   368.38
                              402.57   411.99   446.06   494.87   529.67
                              583.29   625.41   674.40   703.79   786.71
                              850.09   882.65   890.40   903.76  1023.89
                             1037.77  1062.28  1118.43  1122.40  1144.04
                             1201.97  1247.62  1311.79  1341.15  1382.09
                             1405.30  1411.12  1429.16  1470.66  1479.15
                             1484.18  1517.08  1523.56  1534.68  1598.14
                             1617.60  1648.67  1680.92  1685.13  1701.91
                             1800.01  1830.64  1840.05  1867.60  1897.25
                             1904.04  1909.76  1972.28  2002.08  2010.90
                             2039.55  2044.88  2076.62  2085.48  2086.60
                             2093.70  2099.04  2121.48  2141.20  2146.74
                             2162.24  2369.74  2383.68  2612.24  2721.92
                             2722.18  4389.67  4415.70  4417.45  4425.13
                             4511.28  4546.58  4552.11  4556.24  4566.60
                             4568.49  4577.90  4583.57  4607.72  4615.10
                             4616.88  4690.78  4711.29

 Zero-point correction=                           0.286112 (Hartree/Particle)
 Thermal correction to Energy=                    0.304270
 Thermal correction to Enthalpy=                  0.305214
 Thermal correction to Gibbs Free Energy=         0.239508
 Sum of electronic and zero-point Energies=           -859.944017
 Sum of electronic and thermal Energies=              -859.925860
 Sum of electronic and thermal Enthalpies=            -859.924915
 Sum of electronic and thermal Free Energies=         -859.990621

                     E (Thermal)             CV                S
                      KCal/Mol        Cal/Mol-Kelvin    Cal/Mol-Kelvin
 Total                  190.932             67.224            138.289
 Electronic               0.000              0.000              0.000
 Translational            0.889              2.981             42.463
 Rotational               0.889              2.981             33.308
 Vibrational            189.155             61.262             62.519
 Vibration     1          0.594              1.983              5.548
 Vibration     2          0.595              1.980              5.088
 Vibration     3          0.596              1.974              4.498
 Vibration     4          0.600              1.962              3.845
 Vibration     5          0.603              1.952              3.541
 Vibration     6          0.604              1.949              3.454
 Vibration     7          0.608              1.934              3.133
 Vibration     8          0.619              1.899              2.630
 Vibration     9          0.622              1.890              2.536
 Vibration    10          0.627              1.873              2.380
 Vibration    11          0.629              1.868              2.338
 Vibration    12          0.637              1.843              2.156
 Vibration    13          0.643              1.824              2.032
 Vibration    14          0.658              1.776              1.787
 Vibration    15          0.666              1.753              1.689
 Vibration    16          0.680              1.711              1.535
 Vibration    17          0.684              1.699              1.495
 Vibration    18          0.699              1.655              1.362
 Vibration    19          0.723              1.588              1.194
 Vibration    20          0.741              1.538              1.088
 Vibration    21          0.770              1.458              0.943
 Vibration    22          0.795              1.395              0.843
 Vibration    23          0.826              1.319              0.741
 Vibration    24          0.845              1.274              0.686
 Vibration    25          0.902              1.147              0.551
 Vibration    26          0.948              1.051              0.466
 Vibration    27          0.973              1.003              0.427
 Vibration    28          0.979              0.992              0.418

 1\1\GINC-D10S8B1\Freq\RM062X\def2SVP\C13H17N1O4\CHMKSH\08-Sep-2020\0\\
 # freq scrf=(cpcm,solvent=water) geom=connectivity def2svp empiricaldi
 spersion=gd3 m062x\\Title Card Required\\0,1\C,-2.4457,0.791069,-0.599
 968\C,-1.491413,-0.228798,-1.125992\C,-0.210197,0.212117,-0.838153\C,-
 0.326982,1.525658,-0.139103\H,-1.785311,-0.89856,-1.929587\H,0.700911,
 -0.047797,-1.37189\C,-2.240044,2.908487,0.724467\H,-2.797734,2.621032,
 1.625618\H,-1.407482,3.563859,1.003541\H,-2.915172,3.439887,0.040935\N
 ,-1.68251,1.746122,0.071317\O,0.556011,2.280859,0.203235\O,-3.64891,0.

 Normal termination of Gaussian 09 at Tue Sep  8 03:06:12 2020.
