 Gaussian 09, Revision D.01,
 Gaussian 09:  ES64L-G09RevD.01 24-Apr-2013

 ----------------------------------------------------------------------
 # opt freq scrf=(cpcm,solvent=water) geom=connectivity def2svp m062x e
 mpiricaldispersion=gd3
 ----------------------------------------------------------------------

 -------------------
 Title Card Required
 -------------------
 Symbolic Z-matrix:
 Charge =  0 Multiplicity = 1

 SCF Done:  E(RM062X) =  -860.328772946     A.U. after   13 cycles
 SCF Done:  E(RM062X) =  -860.328817616     A.U. after   11 cycles
 SCF Done:  E(RM062X) =  -860.328813181     A.U. after   10 cycles
 SCF Done:  E(RM062X) =  -860.328827289     A.U. after   10 cycles
 SCF Done:  E(RM062X) =  -860.328828802     A.U. after    9 cycles
 SCF Done:  E(RM062X) =  -860.328830233     A.U. after    8 cycles
 SCF Done:  E(RM062X) =  -860.328830915     A.U. after    8 cycles
 SCF Done:  E(RM062X) =  -860.328831528     A.U. after    9 cycles
 SCF Done:  E(RM062X) =  -860.328831948     A.U. after    9 cycles
 SCF Done:  E(RM062X) =  -860.328832226     A.U. after    7 cycles
 SCF Done:  E(RM062X) =  -860.328832417     A.U. after    7 cycles
 Optimization completed.
    -- Stationary point found.
 Normal termination of Gaussian 09 at Tue Jul  6 23:55:15 2021.

 -------------------------------------------------------------------
 #N Geom=AllCheck Guess=TCheck SCRF=Check GenChk RM062X/def2SVP Freq
 -------------------------------------------------------------------

 Structure from the checkpoint file:  "product_diels_m062x_water.chk"
 -------------------
 Title Card Required
 -------------------
 Charge =  0 Multiplicity = 1

                         Standard orientation:
 ---------------------------------------------------------------------
 Center     Atomic      Atomic             Coordinates (Angstroms)
 Number     Number       Type             X           Y           Z
 ---------------------------------------------------------------------
      1          6           0       -2.846628    0.171902   -0.064931
      2          6           0       -1.614335    0.841525   -0.662995
      3          6           0       -0.590503   -0.304227   -0.804251
      4          6           0       -1.332718   -1.545602   -0.316598
      5          1           0       -1.929070    1.196771   -1.656002
      6          1           0       -0.363829   -0.495466   -1.864374
      7          6           0       -3.599209   -2.106430    0.575439
      8          1           0       -3.141569   -3.100553    0.610286
      9          1           0       -3.902552   -1.797446    1.584022
     10          1           0       -4.483764   -2.123164   -0.074052
     11          7           0       -2.613780   -1.184343    0.051776
     12          8           0       -0.887363   -2.663167   -0.240873
     13          8           0       -3.874356    0.707554    0.267313
     14          6           0        0.736542   -0.177433   -0.029224
     15          1           0        1.038956   -1.195081    0.259566
     16          6           0       -1.218193    2.064374    0.188270
     17          1           0       -2.150660    2.448317    0.629720
     18          6           0       -0.287746    1.670833    1.306740
     19          1           0       -0.317141    2.275061    2.217941
     20          6           0        0.591108    0.668996    1.210032
     21          1           0        1.268638    0.460782    2.041872
     22          6           0       -0.629457    3.200884   -0.656293
     23          1           0       -1.363395    3.550536   -1.396522
     24          1           0       -0.353012    4.051711   -0.018044
     25          1           0        0.272844    2.877865   -1.193452
     26          6           0        1.848556    0.338461   -0.949487
     27          1           0        2.009265   -0.373585   -1.771410
     28          1           0        1.599034    1.322300   -1.364310
     29          6           0        3.813530   -0.562309    0.003698
     30          6           0        5.061925   -0.212000    0.759935
     31          1           0        4.794620    0.317978    1.683362
     32          1           0        5.622693   -1.122611    0.989361
     33          1           0        5.674412    0.467501    0.152313
     34          8           0        3.497394   -1.665862   -0.359300
     35          8           0        3.067295    0.525931   -0.236479
 ---------------------------------------------------------------------

 SCF Done:  E(RM062X) =  -860.328832417     A.U. after    1 cycles

 The electronic state is 1-A.
 Alpha  occ. eigenvalues --  -19.68000 -19.63227 -19.63166 -19.62887 -14.81740
 Alpha  occ. eigenvalues --  -10.69204 -10.68002 -10.67739 -10.61607 -10.59455
 Alpha  occ. eigenvalues --  -10.58306 -10.57873 -10.57400 -10.57029 -10.56096
 Alpha  occ. eigenvalues --  -10.55951 -10.55852 -10.55038  -1.22924  -1.19084
 Alpha  occ. eigenvalues --   -1.16954  -1.13252  -1.06531  -0.96150  -0.89400
 Alpha  occ. eigenvalues --   -0.88194  -0.85105  -0.81354  -0.78842  -0.77615
 Alpha  occ. eigenvalues --   -0.73717  -0.70290  -0.69387  -0.64914  -0.63029
 Alpha  occ. eigenvalues --   -0.60123  -0.58583  -0.58377  -0.57553  -0.56709
 Alpha  occ. eigenvalues --   -0.55964  -0.55734  -0.54348  -0.52502  -0.51749
 Alpha  occ. eigenvalues --   -0.50644  -0.50215  -0.49757  -0.49108  -0.48209
 Alpha  occ. eigenvalues --   -0.47321  -0.47121  -0.46618  -0.45373  -0.44634
 Alpha  occ. eigenvalues --   -0.44409  -0.43340  -0.42761  -0.40565  -0.39743
 Alpha  occ. eigenvalues --   -0.38179  -0.37135  -0.36690  -0.35909  -0.34389
 Alpha  occ. eigenvalues --   -0.33745  -0.31250
 Alpha virt. eigenvalues --    0.01855   0.04065   0.04958   0.06195   0.09041
 Alpha virt. eigenvalues --    0.10925   0.11746   0.12447   0.12814   0.13673
 Alpha virt. eigenvalues --    0.14946   0.15617   0.16514   0.17049   0.17400

 Mulliken charges:
               1
     1  C    0.233860
     2  C   -0.079562
     3  C   -0.103859
     4  C    0.250547
     5  H    0.078981
     6  H    0.080510
     7  C    0.070192
     8  H    0.076293
     9  H    0.078548
    10  H    0.079421
    11  N   -0.347284
    12  O   -0.265069
    13  O   -0.268120
    14  C   -0.094698
    15  H    0.051990
    16  C   -0.068801
    17  H    0.052402
    18  C   -0.076612
    19  H    0.043831
    20  C   -0.049110
    21  H    0.041528
    22  C   -0.007462
    23  H    0.055342
    24  H    0.051081
    25  H    0.034074
    26  C    0.239805
    27  H    0.058495
    28  H    0.053451
    29  C    0.177967
    30  C   -0.029949
    31  H    0.085670
    32  H    0.070223
    33  H    0.088834
    34  O   -0.303065
    35  O   -0.359451
 Sum of Mulliken charges =   0.00000

 Dipole moment (field-independent basis, Debye):
    X=              1.1783    Y=              3.5774    Z=             -0.5403  Tot=              3.8050
 Quadrupole moment (field-independent basis, Debye-Ang):
   XX=           -104.9187   YY=           -115.7199   ZZ=            -98.5646
   XY=             13.7211   XZ=              6.1955   YZ=             -3.6543

  Exact polarizability: 204.076 -20.545 201.455   0.071   3.076 151.797
 Approx polarizability: 180.257 -24.210 192.229  -2.343   5.064 144.188

                      1                      2                      3
                      A                      A                      A
 Frequencies --     17.0083                39.1883                54.8369
 Red. masses --      7.6514                 4.8317                 1.9526
 Frc consts  --      0.0013                 0.0044                 0.0035
 IR Inten    --      0.1081                 0.6906                 5.4850

                      4                      5                      6
                      A                      A                      A
 Frequencies --     73.4211                76.5809                86.6762
 Red. masses --      5.9553                 1.0545                 1.8993
 Frc consts  --      0.0189                 0.0036                 0.0084
 IR Inten    --      0.5284                 0.1333                 1.2434

                      7                      8                      9
                      A                      A                      A
 Frequencies --    101.7994               122.3223               152.9328
 Red. masses --      2.1355                 5.1920                 4.9943
 Frc consts  --      0.0130                 0.0458                 0.0688
 IR Inten    --      2.2437                 6.5438                 5.6031

                     10                     11                     12
                      A                      A                      A
 Frequencies --    163.6313               191.4797               226.0886
 Red. masses --      4.2459                 2.0817                 2.5427
 Frc consts  --      0.0670                 0.0450                 0.0766
 IR Inten    --      7.1035                 2.5180                 1.8057

                     13                     14                     15
                      A                      A                      A
 Frequencies --    237.8686               249.5575               276.4420
 Red. masses --      2.1350                 3.6238                 2.5136
 Frc consts  --      0.0712                 0.1330                 0.1132
 IR Inten    --      1.1005                 4.5096                 2.6625

                     16                     17                     18
                      A                      A                      A
 Frequencies --    293.2701               316.1479               332.8521
 Red. masses --      3.2208                 4.4635                 2.7599
 Frc consts  --      0.1632                 0.2629                 0.1802
 IR Inten    --      7.9488                 8.9525                11.0086

                     19                     20                     21
                      A                      A                      A
 Frequencies --    407.4885               430.1282               450.1545
 Red. masses --      4.4346                 4.5702                 3.7592
 Frc consts  --      0.4338                 0.4982                 0.4488
 IR Inten    --     37.9256                15.2634                13.6331

                     22                     23                     24
                      A                      A                      A
 Frequencies --    487.5689               535.7086               579.5647
 Red. masses --      3.9652                 4.1707                 2.8804
 Frc consts  --      0.5554                 0.7052                 0.5700
 IR Inten    --      5.9457                 5.0852                 0.5622

                     25                     26                     27
                      A                      A                      A
 Frequencies --    603.6098               611.4484               625.1835
 Red. masses --      3.7611                 3.1444                 5.8831
 Frc consts  --      0.8074                 0.6926                 1.3548
 IR Inten    --      6.9770                11.3676                 4.4447

                     28                     29                     30
                      A                      A                      A
 Frequencies --    658.0701               666.8564               711.8835
 Red. masses --      4.9568                 5.0892                 3.2074
 Frc consts  --      1.2647                 1.3334                 0.9577
 IR Inten    --      5.1802                12.3247                 9.1650

                     31                     32                     33
                      A                      A                      A
 Frequencies --    761.7149               800.7328               817.4042
 Red. masses --      1.5603                 5.4671                 5.1846
 Frc consts  --      0.5334                 2.0653                 2.0410
 IR Inten    --     90.5990                12.8374                19.9271

                     34                     35                     36
                      A                      A                      A
 Frequencies --    824.4092               845.7966               900.4025
 Red. masses --      3.1836                 2.4045                 3.2667
 Frc consts  --      1.2748                 1.0135                 1.5604
 IR Inten    --      3.0730                41.8318                 9.0156

                     37                     38                     39
                      A                      A                      A
 Frequencies --    933.9889               937.2337               974.2497
 Red. masses --      3.0620                 2.1852                 1.8137
 Frc consts  --      1.5738                 1.1309                 1.0143
 IR Inten    --      2.9462                10.6024                14.3312

                     40                     41                     42
                      A                      A                      A
 Frequencies --   1000.0336              1011.8967              1027.3546
 Red. masses --      1.7883                 1.7344                 1.3344
 Frc consts  --      1.0537                 1.0463                 0.8298
 IR Inten    --     24.6724                37.7237                 6.2112

                     43                     44                     45
                      A                      A                      A
 Frequencies --   1054.8069              1056.9405              1067.2938
 Red. masses --      1.7319                 1.9031                 1.8705
 Frc consts  --      1.1353                 1.2526                 1.2554
 IR Inten    --      8.0599                20.6588                 4.6194

                     46                     47                     48
                      A                      A                      A
 Frequencies --   1101.4133              1113.4542              1114.8017
 Red. masses --      3.8592                 2.4759                 3.5566
 Frc consts  --      2.7583                 1.8085                 2.6042
 IR Inten    --      8.9085                19.5395                15.7640

                     49                     50                     51
                      A                      A                      A
 Frequencies --   1135.1632              1137.5033              1144.8170
 Red. masses --      3.0443                 1.7791                 1.3761
 Frc consts  --      2.3113                 1.3563                 1.0626
 IR Inten    --     75.6708                13.2641                 1.7450

                     52                     53                     54
                      A                      A                      A
 Frequencies --   1154.8849              1155.9576              1189.1875
 Red. masses --      1.9488                 1.4148                 1.1413
 Frc consts  --      1.5314                 1.1139                 0.9509
 IR Inten    --    123.1431                22.1226                 0.1630

                     55                     56                     57
                      A                      A                      A
 Frequencies --   1252.1111              1275.6982              1284.3357
 Red. masses --      1.4109                 1.6498                 1.5966
 Frc consts  --      1.3033                 1.5819                 1.5517
 IR Inten    --      2.1501               228.1188                78.1476

                     58                     59                     60
                      A                      A                      A
 Frequencies --   1294.1222              1306.1660              1319.8568
 Red. masses --      2.2930                 1.5086                 1.5567
 Frc consts  --      2.2626                 1.5164                 1.5977
 IR Inten    --     56.8522                 7.0237               231.0006

                     61                     62                     63
                      A                      A                      A
 Frequencies --   1341.5079              1348.3403              1357.9374
 Red. masses --      2.6797                 1.3272                 1.3473
 Frc consts  --      2.8414                 1.4216                 1.4637
 IR Inten    --    239.8423                12.1676                26.8894

                     64                     65                     66
                      A                      A                      A
 Frequencies --   1373.9496              1384.5979              1386.8868
 Red. masses --      1.6224                 1.4134                 1.5418
 Frc consts  --      1.8045                 1.5965                 1.7473
 IR Inten    --     80.4181                 4.6405                25.5221

                     67                     68                     69
                      A                      A                      A
 Frequencies --   1388.3651              1416.6538              1417.1778
 Red. masses --      1.6511                 1.5198                 1.3265
 Frc consts  --      1.8751                 1.7971                 1.5696
 IR Inten    --    145.3394                58.1196                31.2780

                     70                     71                     72
                      A                      A                      A
 Frequencies --   1430.3992              1433.5743              1440.3173
 Red. masses --      1.2023                 1.4549                 1.0487
 Frc consts  --      1.4494                 1.7616                 1.2817
 IR Inten    --     14.6715                14.1010                13.5891

                     73                     74                     75
                      A                      A                      A
 Frequencies --   1453.3792              1457.5973              1465.4628
 Red. masses --      1.0432                 1.0899                 1.1187
 Frc consts  --      1.2983                 1.3643                 1.4155
 IR Inten    --     21.7178                16.0919                14.0445

                     76                     77                     78
                      A                      A                      A
 Frequencies --   1469.5274              1473.5646              1501.2421
 Red. masses --      1.3285                 1.1621                 3.3070
 Frc consts  --      1.6903                 1.4867                 4.3912
 IR Inten    --    181.6609                43.8635               313.4750

                     79                     80                     81
                      A                      A                      A
 Frequencies --   1758.0796              1836.8026              1875.6133
 Red. masses --      7.1346                12.9257                11.5237
 Frc consts  --     12.9927                25.6938                23.8852
 IR Inten    --      3.3467              1273.2148               455.9093

                     82                     83                     84
                      A                      A                      A
 Frequencies --   1921.2991              3060.9639              3080.2063
 Red. masses --     12.3703                 1.0361                 1.0333
 Frc consts  --     26.9041                 5.7198                 5.7759
 IR Inten    --     73.4617                31.1339                26.4683

                     85                     86                     87
                      A                      A                      A
 Frequencies --   3084.2217              3088.4187              3090.2569
 Red. masses --      1.0369                 1.0859                 1.0864
 Frc consts  --      5.8111                 6.1024                 6.1124
 IR Inten    --      0.0862                 8.4913                 9.5492

                     88                     89                     90
                      A                      A                      A
 Frequencies --   3099.2803              3101.0076              3106.1100
 Red. masses --      1.0856                 1.0801                 1.0661
 Frc consts  --      6.1438                 6.1198                 6.0601
 IR Inten    --      9.3144                 5.9767                29.6405

                     91                     92                     93
                      A                      A                      A
 Frequencies --   3151.5747              3160.9141              3176.4081
 Red. masses --      1.1053                 1.1046                 1.1031
 Frc consts  --      6.4680                 6.5025                 6.5576
 IR Inten    --     24.8377                38.9964                 0.2513

                     94                     95                     96
                      A                      A                      A
 Frequencies --   3176.5501              3182.9862              3183.8408
 Red. masses --      1.1079                 1.1066                 1.0866
 Frc consts  --      6.5865                 6.6057                 6.4894
 IR Inten    --      8.3977                 7.8915                 3.7359

                     97                     98                     99
                      A                      A                      A
 Frequencies --   3202.9007              3207.4989              3217.8591
 Red. masses --      1.1001                 1.1071                 1.1080
 Frc consts  --      6.6494                 6.7105                 6.7594
 IR Inten    --     20.1111                 0.0786                 2.5462

 - Thermochemistry -
 -------------------
 Temperature   298.150 Kelvin.  Pressure   1.00000 Atm.
 Atom     1 has atomic number  6 and mass  12.00000

 Molecular mass:   251.11576 amu.
 Principal axes and moments of inertia in atomic units:
                           1         2         3
     Eigenvalues --  2461.933386535.259738171.09313
           X            0.99994   0.01000   0.00437
           Y           -0.00991   0.99978  -0.01830
           Z           -0.00455   0.01825   0.99982
 This molecule is an asymmetric top.
 Rotational symmetry number  1.
 Warning -- assumption of classical behavior for rotation
           may cause significant error
 Rotational temperatures (Kelvin)      0.03518     0.01325     0.01060
 Rotational constants (GHZ):           0.73306     0.27615     0.22087
 Zero-point vibrational energy     766069.2 (Joules/Mol)
                                  183.09494 (Kcal/Mol)
 Warning -- explicit consideration of  26 degrees of freedom as
           vibrations may cause significant error
 Vibrational temperatures:     24.47    56.38    78.90   105.64   110.18
          (Kelvin)            124.71   146.47   175.99   220.04   235.43
                              275.50   325.29   342.24   359.06   397.74
                              421.95   454.87   478.90   586.28   618.86
                              647.67   701.50   770.76   833.86   868.46
                              879.74   899.50   946.81   959.46  1024.24
                             1095.94  1152.07  1176.06  1186.14  1216.91
                             1295.48  1343.80  1348.47  1401.73  1438.82
                             1455.89  1478.13  1517.63  1520.70  1535.60
                             1584.69  1602.01  1603.95  1633.24  1636.61
                             1647.13  1661.62  1663.16  1710.97  1801.51
                             1835.44  1847.87  1861.95  1879.28  1898.98
                             1930.13  1939.96  1953.77  1976.80  1992.13
                             1995.42  1997.55  2038.25  2039.00  2058.02
                             2062.59  2072.29  2091.09  2097.15  2108.47
                             2114.32  2120.13  2159.95  2529.48  2642.75
                             2698.59  2764.32  4404.04  4431.72  4437.50
                             4443.54  4446.18  4459.17  4461.65  4468.99
                             4534.41  4547.84  4570.14  4570.34  4579.60
                             4580.83  4608.25  4614.87  4629.78

 Zero-point correction=                           0.291780 (Hartree/Particle)
 Thermal correction to Energy=                    0.309388
 Thermal correction to Enthalpy=                  0.310333
 Thermal correction to Gibbs Free Energy=         0.244375
 Sum of electronic and zero-point Energies=           -860.037052
 Sum of electronic and thermal Energies=              -860.019444
 Sum of electronic and thermal Enthalpies=            -860.018500
 Sum of electronic and thermal Free Energies=         -860.084457

                     E (Thermal)             CV                S
                      KCal/Mol        Cal/Mol-Kelvin    Cal/Mol-Kelvin
 Total                  194.144             64.771            138.819
 Electronic               0.000              0.000              0.000
 Translational            0.889              2.981             42.463
 Rotational               0.889              2.981             33.241
 Vibrational            192.367             58.809             63.115
 Vibration     1          0.593              1.986              6.956
 Vibration     2          0.594              1.981              5.300
 Vibration     3          0.596              1.976              4.635
 Vibration     4          0.599              1.967              4.059
 Vibration     5          0.599              1.965              3.977
 Vibration     6          0.601              1.958              3.734
 Vibration     7          0.604              1.948              3.420
 Vibration     8          0.610              1.930              3.063
 Vibration     9          0.619              1.899              2.635
 Vibration    10          0.623              1.887              2.507
 Vibration    11          0.634              1.852              2.213
 Vibration    12          0.650              1.801              1.910
 Vibration    13          0.656              1.783              1.819
 Vibration    14          0.662              1.763              1.734
 Vibration    15          0.678              1.717              1.556
 Vibration    16          0.688              1.686              1.455
 Vibration    17          0.703              1.643              1.330
 Vibration    18          0.715              1.610              1.246
 Vibration    19          0.772              1.454              0.936
 Vibration    20          0.791              1.405              0.858
 Vibration    21          0.809              1.361              0.795
 Vibration    22          0.844              1.278              0.690
 Vibration    23          0.891              1.171              0.575
 Vibration    24          0.936              1.075              0.486
 Vibration    25          0.962              1.024              0.443
 Vibration    26          0.971              1.008              0.430

 Normal termination of Gaussian 09 at Wed Jul  7 00:22:17 2021.
