 Gaussian 09, Revision D.01,
 Gaussian 09:  ES64L-G09RevD.01 24-Apr-2013

 ----------------------------------------------------------------------
 # opt=(calcfc,ts,noeigentest) scrf=(cpcm,solvent=water) geom=connectiv
 ity def2svp m062x empiricaldispersion=gd3
 ----------------------------------------------------------------------

 -------------------
 Title Card Required
 -------------------
 Symbolic Z-matrix:
 Charge =  0 Multiplicity = 1

 SCF Done:  E(RM062X) =  -860.230128568     A.U. after   15 cycles

  Exact polarizability:   0.000   0.000   0.000   0.000   0.000   0.000
 Approx polarizability: 246.303   9.913 215.873  11.795  -2.531 160.795

 SCF Done:  E(RM062X) =  -860.230129183     A.U. after    9 cycles
 Optimization completed.
    -- Stationary point found.

                         Standard orientation:
 ---------------------------------------------------------------------
 Center     Atomic      Atomic             Coordinates (Angstroms)
 Number     Number       Type             X           Y           Z
 ---------------------------------------------------------------------
      1          6           0       -2.445700    0.791069   -0.599968
      2          6           0       -1.491413   -0.228798   -1.125992
      3          6           0       -0.210197    0.212117   -0.838153
      4          6           0       -0.326982    1.525658   -0.139103
      5          1           0       -1.785311   -0.898560   -1.929587
      6          1           0        0.700911   -0.047797   -1.371890
      7          6           0       -2.240044    2.908487    0.724467
      8          1           0       -2.797734    2.621032    1.625618
      9          1           0       -1.407482    3.563859    1.003541
     10          1           0       -2.915172    3.439887    0.040935
     11          7           0       -1.682510    1.746122    0.071317
     12          8           0        0.556011    2.280859    0.203235
     13          8           0       -3.648910    0.837984   -0.698331
     14          6           0       -0.970724   -2.638964    0.257408
     15          1           0       -1.066733   -3.597766   -0.260855
     16          6           0        0.324953   -2.174075    0.549224
     17          1           0        1.178719   -2.774425    0.225054
     18          6           0       -2.100399   -1.855569    0.393172
     19          1           0       -2.076835   -1.030810    1.112259
     20          6           0       -3.462471   -2.319907   -0.019998
     21          1           0       -4.036675   -1.492710   -0.460825
     22          1           0       -3.398929   -3.144072   -0.743039
     23          1           0       -4.025033   -2.670124    0.859906
     24          6           0        0.565800   -0.893590    1.002393
     25          1           0       -0.203279   -0.372528    1.579782
     26          6           0        1.950195   -0.352233    1.194656
     27          1           0        2.342088   -0.656031    2.180265
     28          1           0        1.914284    0.743265    1.169954
     29          6           0        3.787946   -0.150237   -0.384264
     30          6           0        3.918788    1.299013    0.004139
     31          1           0        4.129085    1.394548    1.078663
     32          1           0        4.744170    1.728679   -0.570534
     33          1           0        2.986031    1.843044   -0.205596
     34          8           0        2.804260   -0.873537    0.184478
     35          8           0        4.500758   -0.696576   -1.181976
 ---------------------------------------------------------------------

 The electronic state is 1-A.
 Alpha  occ. eigenvalues --  -19.68015 -19.63683 -19.63342 -19.62165 -14.80687
 Alpha  occ. eigenvalues --  -10.69384 -10.68306 -10.67970 -10.62174 -10.59260
 Alpha  occ. eigenvalues --  -10.58822 -10.58693 -10.58406 -10.58143 -10.56558
 Alpha  occ. eigenvalues --  -10.56308 -10.56232 -10.55149  -1.22366  -1.18883
 Alpha  occ. eigenvalues --   -1.16864  -1.13392  -1.06342  -0.93839  -0.90667
 Alpha  occ. eigenvalues --   -0.88097  -0.83769  -0.82057  -0.79132  -0.76301
 Alpha  occ. eigenvalues --   -0.74348  -0.69844  -0.69090  -0.65729  -0.62919
 Alpha  occ. eigenvalues --   -0.60269  -0.58691  -0.58519  -0.57792  -0.57369
 Alpha  occ. eigenvalues --   -0.56850  -0.54521  -0.54105  -0.52318  -0.51994
 Alpha  occ. eigenvalues --   -0.51352  -0.50636  -0.50199  -0.49201  -0.48157
 Alpha  occ. eigenvalues --   -0.47886  -0.46937  -0.46481  -0.46132  -0.45584
 Alpha  occ. eigenvalues --   -0.45132  -0.42971  -0.42437  -0.41624  -0.41155
 Alpha  occ. eigenvalues --   -0.37448  -0.37353  -0.35624  -0.34610  -0.34161
 Alpha  occ. eigenvalues --   -0.30320  -0.28617
 Alpha virt. eigenvalues --   -0.04132  -0.00996   0.05443   0.07789   0.08916
 Alpha virt. eigenvalues --    0.10118   0.10425   0.11224   0.13111   0.13828
 Alpha virt. eigenvalues --    0.14174   0.14652   0.15252   0.16420   0.16674

 Mulliken charges:
               1
     1  C    0.271426
     2  C   -0.115545
     3  C   -0.125507
     4  C    0.286505
     5  H    0.068608
     6  H    0.066976
     7  C    0.071012
     8  H    0.076054
     9  H    0.072797
    10  H    0.072662
    11  N   -0.382747
    12  O   -0.270804
    13  O   -0.267844
    14  C   -0.035965
    15  H    0.043347
    16  C   -0.011273
    17  H    0.047447
    18  C   -0.132127
    19  H    0.064187
    20  C    0.002056
    21  H    0.057111
    22  H    0.055024
    23  H    0.072685
    24  C   -0.142440
    25  H    0.075394
    26  C    0.227255
    27  H    0.087934
    28  H    0.067071
    29  C    0.192942
    30  C   -0.125757
    31  H    0.099725
    32  H    0.075397
    33  H    0.093671
    34  O   -0.350946
    35  O   -0.286329
 Sum of Mulliken charges =   0.00000

 Dipole moment (field-independent basis, Debye):
    X=             -2.4714    Y=              0.3394    Z=              3.7511  Tot=              4.5049
 Quadrupole moment (field-independent basis, Debye-Ang):
   XX=           -131.0080   YY=           -103.0086   ZZ=           -103.9044
   XY=             11.4486   XZ=              7.8125   YZ=              1.7617

 Normal termination of Gaussian 09 at Sun Sep  6 20:04:58 2020.
