 Gaussian 09, Revision D.01,
 Gaussian 09:  ES64L-G09RevD.01 24-Apr-2013

 ----------------------------------------------------------------------
 # opt freq scrf=(cpcm,solvent=water) geom=connectivity def2svp m062x e
 mpiricaldispersion=gd3
 ----------------------------------------------------------------------

 -------------------
 Title Card Required
 -------------------
 Symbolic Z-matrix:
 Charge =  0 Multiplicity = 1

 SCF Done:  E(RM062X) =  -461.942037462     A.U. after   12 cycles
 Optimization completed.
    -- Stationary point found.
 Normal termination of Gaussian 09 at Sun Sep  6 03:06:13 2020.

 -------------------------------------------------------------------
 #N Geom=AllCheck Guess=TCheck SCRF=Check GenChk RM062X/def2SVP Freq
 -------------------------------------------------------------------

 Structure from the checkpoint file:  "water_m06-2x_diene_pm6_cpcmtoluene_1_gd3.chk"
 -------------------
 Title Card Required
 -------------------
 Charge =  0 Multiplicity = 1

                         Standard orientation:
 ---------------------------------------------------------------------
 Center     Atomic      Atomic             Coordinates (Angstroms)
 Number     Number       Type             X           Y           Z
 ---------------------------------------------------------------------
      1          6           0       -2.590081    0.646093   -0.256496
      2          1           0       -2.922822    1.571355   -0.740961
      3          6           0       -1.134727    0.440696   -0.184656
      4          1           0       -0.508805    1.337276   -0.170447
      5          6           0       -3.518007   -0.185993    0.236668
      6          1           0       -3.187032   -1.085168    0.770484
      7          6           0       -4.995754    0.024838    0.129957
      8          1           0       -5.462270    0.064260    1.126427
      9          1           0       -5.229908    0.956622   -0.402694
     10          1           0       -5.473411   -0.810234   -0.406036
     11          6           0       -0.528491   -0.752169   -0.153880
     12          1           0       -1.116615   -1.673528   -0.217928
     13          6           0        0.948806   -0.964155   -0.052399
     14          1           0        1.304091   -1.523988   -0.933384
     15          1           0        1.176869   -1.576858    0.836184
     16          6           0        2.947236    0.385101    0.072499
     17          6           0        3.742191   -0.890222   -0.020931
     18          1           0        3.560695   -1.383965   -0.985654
     19          1           0        4.803334   -0.641797    0.069031
     20          1           0        3.454982   -1.592364    0.772724
     21          8           0        1.607169    0.289908    0.036160
     22          8           0        3.439562    1.476748    0.171050
 ---------------------------------------------------------------------

 SCF Done:  E(RM062X) =  -461.942037462     A.U. after    1 cycles

 The electronic state is 1-A.
 Alpha  occ. eigenvalues --  -19.67902 -19.62142 -10.69335 -10.62279 -10.56516
 Alpha  occ. eigenvalues --  -10.56184 -10.55777 -10.55741 -10.55318 -10.54878
 Alpha  occ. eigenvalues --   -1.22434  -1.13404  -0.91145  -0.87177  -0.83846
 Alpha  occ. eigenvalues --   -0.81063  -0.74346  -0.68520  -0.64818  -0.59674
 Alpha  occ. eigenvalues --   -0.58371  -0.58140  -0.56503  -0.53498  -0.50995
 Alpha  occ. eigenvalues --   -0.50580  -0.48126  -0.47619  -0.46985  -0.45706
 Alpha  occ. eigenvalues --   -0.45339  -0.42581  -0.41381  -0.40487  -0.37884
 Alpha  occ. eigenvalues --   -0.36113  -0.35567  -0.27907
 Alpha virt. eigenvalues --    0.00892   0.05433   0.09414   0.10967   0.12043
 Alpha virt. eigenvalues --    0.12451   0.14480   0.14954   0.15276   0.16783
 Alpha virt. eigenvalues --    0.18097   0.18436   0.19325   0.20793   0.21491

 Mulliken charges:
               1
     1  C   -0.050505
     2  H    0.035680
     3  C   -0.024781
     4  H    0.041851
     5  C   -0.145805
     6  H    0.043054
     7  C   -0.036482
     8  H    0.061208
     9  H    0.049690
    10  H    0.063133
    11  C   -0.161094
    12  H    0.057282
    13  C    0.198187
    14  H    0.071734
    15  H    0.075020
    16  C    0.192318
    17  C   -0.105812
    18  H    0.097957
    19  H    0.079648
    20  H    0.092635
    21  O   -0.344556
    22  O   -0.290360
 Sum of Mulliken charges =   0.00000

 Dipole moment (field-independent basis, Debye):
    X=             -1.4895    Y=             -5.5328    Z=             -0.3438  Tot=              5.7401
 Quadrupole moment (field-independent basis, Debye-Ang):
   XX=            -57.6722   YY=            -60.6832   ZZ=            -61.0090
   XY=            -13.9232   XZ=             -1.7020   YZ=             -1.7457

  Exact polarizability: 161.098  -0.352 118.905  -5.306  -6.195  75.761
 Approx polarizability: 128.536   3.009 116.544  -5.077  -5.431  75.172

                      1                      2                      3
                      A                      A                      A
 Frequencies --     25.2044                40.6174                82.1272
 Red. masses --      2.1887                 3.8032                 3.8283
 Frc consts  --      0.0008                 0.0037                 0.0152
 IR Inten    --      2.7047                 1.1600                 2.4479

                      4                      5                      6
                      A                      A                      A
 Frequencies --    127.9190               135.1244               145.8597
 Red. masses --      1.7890                 3.5824                 1.2900
 Frc consts  --      0.0172                 0.0385                 0.0162
 IR Inten    --      2.0727                 0.5453                 0.1604

                      7                      8                      9
                      A                      A                      A
 Frequencies --    163.2942               197.1173               224.5437
 Red. masses --      3.7080                 1.3778                 1.7002
 Frc consts  --      0.0583                 0.0315                 0.0505
 IR Inten    --      0.9865                 5.2749                 4.3186

                     10                     11                     12
                      A                      A                      A
 Frequencies --    250.3296               340.7963               362.7444
 Red. masses --      3.7984                 2.6006                 2.9822
 Frc consts  --      0.1402                 0.1780                 0.2312
 IR Inten    --      0.6454                 1.1417                 3.7260

                     13                     14                     15
                      A                      A                      A
 Frequencies --    464.4086               536.6734               587.8807
 Red. masses --      3.5547                 4.1447                 2.3545
 Frc consts  --      0.4517                 0.7033                 0.4794
 IR Inten    --      4.8037                 8.5727                 9.2141

                     16                     17                     18
                      A                      A                      A
 Frequencies --    608.5839               709.6995               779.9997
 Red. masses --      4.9244                 2.8812                 1.6232
 Frc consts  --      1.0746                 0.8550                 0.5819
 IR Inten    --     17.0636                11.9632                 2.3504

                     19                     20                     21
                      A                      A                      A
 Frequencies --    850.2764               876.4954               918.4824
 Red. masses --      1.7908                 3.1884                 1.6621
 Frc consts  --      0.7628                 1.4432                 0.8261
 IR Inten    --      4.5244                 2.2792                17.0273

                     22                     23                     24
                      A                      A                      A
 Frequencies --    996.6499              1003.3993              1017.6002
 Red. masses --      1.2251                 1.6586                 1.4639
 Frc consts  --      0.7170                 0.9839                 0.8931
 IR Inten    --     28.9039                41.7091                47.0831

                     25                     26                     27
                      A                      A                      A
 Frequencies --   1020.3495              1038.2105              1052.9125
 Red. masses --      1.2831                 1.7943                 1.8937
 Frc consts  --      0.7871                 1.1395                 1.2369
 IR Inten    --     43.5618                 1.6478                25.1870

                     28                     29                     30
                      A                      A                      A
 Frequencies --   1058.4739              1086.8762              1139.7122
 Red. masses --      1.6014                 1.5798                 2.4047
 Frc consts  --      1.0571                 1.0995                 1.8404
 IR Inten    --      1.6276                 4.8788                 1.0405

                     31                     32                     33
                      A                      A                      A
 Frequencies --   1183.8925              1267.6691              1288.5894
 Red. masses --      4.2891                 1.0754                 1.8063
 Frc consts  --      3.5419                 1.0182                 1.7671
 IR Inten    --     83.8561                 5.0448               228.7028

                     34                     35                     36
                      A                      A                      A
 Frequencies --   1289.6464              1302.8802              1313.8775
 Red. masses --      1.2624                 1.6734                 1.5942
 Frc consts  --      1.2370                 1.6736                 1.6214
 IR Inten    --      1.4141               240.2095               192.2267

                     37                     38                     39
                      A                      A                      A
 Frequencies --   1325.6244              1390.5285              1393.2564
 Red. masses --      1.5051                 1.3794                 1.6871
 Frc consts  --      1.5583                 1.5715                 1.9296
 IR Inten    --      5.2914                24.2686               320.3992

                     40                     41                     42
                      A                      A                      A
 Frequencies --   1408.7300              1431.8106              1441.3191
 Red. masses --      1.4493                 1.1264                 1.0432
 Frc consts  --      1.6945                 1.3605                 1.2768
 IR Inten    --      0.6327                15.6531                13.5627

                     43                     44                     45
                      A                      A                      A
 Frequencies --   1446.9383              1451.7816              1475.5221
 Red. masses --      1.0457                 1.0578                 1.1097
 Frc consts  --      1.2900                 1.3135                 1.4235
 IR Inten    --     19.7174                19.4909                 2.4120

                     46                     47                     48
                      A                      A                      A
 Frequencies --   1759.4034              1764.6682              1891.7899
 Red. masses --      6.9325                 6.1747                11.8374
 Frc consts  --     12.6436                11.3290                24.9604
 IR Inten    --     15.2575                 1.7225               622.6144

                     49                     50                     51
                      A                      A                      A
 Frequencies --   3046.4229              3057.6771              3080.1133
 Red. masses --      1.0376                 1.0586                 1.0378
 Frc consts  --      5.6735                 5.8315                 5.8007
 IR Inten    --     32.3091                29.5983                 0.0407

                     52                     53                     54
                      A                      A                      A
 Frequencies --   3106.9110              3121.0484              3149.3729
 Red. masses --      1.1072                 1.1017                 1.0994
 Frc consts  --      6.2972                 6.3228                 6.4249
 IR Inten    --     20.3329                14.6644                 3.9846

                     55                     56                     57
                      A                      A                      A
 Frequencies --   3155.7990              3162.6844              3169.9123
 Red. masses --      1.0917                 1.0948                 1.1027
 Frc consts  --      6.4059                 6.4522                 6.5285
 IR Inten    --     18.8013                38.8933                 0.3685

                     58                     59                     60
                      A                      A                      A
 Frequencies --   3183.4536              3202.9734              3210.4338
 Red. masses --      1.0919                 1.0902                 1.1068
 Frc consts  --      6.5200                 6.5895                 6.7212
 IR Inten    --      5.5068                 6.0008                 1.8889

 - Thermochemistry -
 -------------------
 Temperature   298.150 Kelvin.  Pressure   1.00000 Atm.
 Atom     1 has atomic number  6 and mass  12.00000

 Molecular mass:   140.08373 amu.
 Principal axes and moments of inertia in atomic units:
                           1         2         3
     Eigenvalues --   361.557874388.331174686.20072
           X            0.99988  -0.01567  -0.00177
           Y            0.01563   0.99970  -0.01908
           Z            0.00207   0.01905   0.99982
 This molecule is an asymmetric top.
 Rotational symmetry number  1.
 Rotational temperatures (Kelvin)      0.23956     0.01974     0.01848
 Rotational constants (GHZ):           4.99157     0.41126     0.38512
 Zero-point vibrational energy     486384.2 (Joules/Mol)
                                  116.24862 (Kcal/Mol)
 Warning -- explicit consideration of  16 degrees of freedom as
           vibrations may cause significant error
 Vibrational temperatures:     36.26    58.44   118.16   184.05   194.41
          (Kelvin)            209.86   234.94   283.61   323.07   360.17
                              490.33   521.91   668.18   772.15   845.83
                              875.62  1021.10  1122.24  1223.36  1261.08
                             1321.49  1433.96  1443.67  1464.10  1468.05
                             1493.75  1514.90  1522.91  1563.77  1639.79
                             1703.36  1823.89  1853.99  1855.51  1874.55
                             1890.37  1907.28  2000.66  2004.58  2026.85
                             2060.05  2073.73  2081.82  2088.79  2122.94
                             2531.39  2538.96  2721.86  4383.12  4399.31
                             4431.59  4470.15  4490.49  4531.24  4540.49
                             4550.39  4560.79  4580.27  4608.36  4619.09

 Zero-point correction=                           0.185254 (Hartree/Particle)
 Thermal correction to Energy=                    0.197079
 Thermal correction to Enthalpy=                  0.198023
 Thermal correction to Gibbs Free Energy=         0.145840
 Sum of electronic and zero-point Energies=           -461.756783
 Sum of electronic and thermal Energies=              -461.744959
 Sum of electronic and thermal Enthalpies=            -461.744014
 Sum of electronic and thermal Free Energies=         -461.796197

                     E (Thermal)             CV                S
                      KCal/Mol        Cal/Mol-Kelvin    Cal/Mol-Kelvin
 Total                  123.669             40.664            109.828
 Electronic               0.000              0.000              0.000
 Translational            0.889              2.981             40.723
 Rotational               0.889              2.981             30.387
 Vibrational            121.891             34.703             38.718
 Vibration     1          0.593              1.985              6.175
 Vibration     2          0.594              1.981              5.229
 Vibration     3          0.600              1.961              3.839
 Vibration     4          0.611              1.925              2.977
 Vibration     5          0.613              1.918              2.872
 Vibration     6          0.617              1.907              2.726
 Vibration     7          0.623              1.887              2.511
 Vibration     8          0.637              1.844              2.160
 Vibration     9          0.649              1.804              1.922
 Vibration    10          0.663              1.762              1.728
 Vibration    11          0.720              1.594              1.208
 Vibration    12          0.737              1.549              1.110
 Vibration    13          0.822              1.329              0.753
 Vibration    14          0.892              1.169              0.572
 Vibration    15          0.945              1.058              0.471
 Vibration    16          0.967              1.014              0.435

 Optimization completed.
    -- Stationary point found.
 Normal termination of Gaussian 09 at Sun Sep  6 03:10:44 2020.
