 Gaussian 09, Revision D.01,
 Gaussian 09:  ES64L-G09RevD.01 24-Apr-2013

 ----------------------------------------------------------------------
 # opt freq scrf=(cpcm,solvent=water) geom=connectivity def2svp m062x e
 mpiricaldispersion=gd3
 ----------------------------------------------------------------------

 -------------------
 Title Card Required
 -------------------
 Symbolic Z-matrix:
 Charge =  0 Multiplicity = 1

 SCF Done:  E(RM062X) =  -398.294648960     A.U. after   12 cycles
 Optimization completed.
    -- Stationary point found.
 Normal termination of Gaussian 09 at Sun Sep  6 03:03:35 2020.

 -------------------------------------------------------------------
 #N Geom=AllCheck Guess=TCheck SCRF=Check GenChk RM062X/def2SVP Freq
 -------------------------------------------------------------------

 Structure from the checkpoint file:  "water_m06-2x_dienophile_pm6_cpcmtoluene_1_1_gd3.chk"
 -------------------
 Title Card Required
 -------------------
 Charge =  0 Multiplicity = 1

                         Standard orientation:
 ---------------------------------------------------------------------
 Center     Atomic      Atomic             Coordinates (Angstroms)
 Number     Number       Type             X           Y           Z
 ---------------------------------------------------------------------
      1          6           0       -1.136268   -0.222706    0.001006
      2          6           0       -0.633963   -1.642307    0.000088
      3          6           0        0.698938   -1.615584    0.000194
      4          6           0        1.147551   -0.177770    0.001047
      5          1           0       -1.306978   -2.497224   -0.001308
      6          1           0        1.406168   -2.442500   -0.001038
      7          6           0       -0.051486    2.033834    0.000031
      8          1           0        0.977867    2.394672   -0.103623
      9          1           0       -0.654711    2.395041   -0.842712
     10          1           0       -0.478313    2.414002    0.937856
     11          7           0       -0.010946    0.589146    0.001925
     12          8           0        2.272061    0.250160   -0.001129
     13          8           0       -2.274066    0.169738   -0.000978
 ---------------------------------------------------------------------

 SCF Done:  E(RM062X) =  -398.294648960     A.U. after    1 cycles

 The electronic state is 1-A.
 Alpha  occ. eigenvalues --  -19.64297 -19.64245 -14.80932 -10.68797 -10.68662
 Alpha  occ. eigenvalues --  -10.59499 -10.59223 -10.59122  -1.19656  -1.17743
 Alpha  occ. eigenvalues --   -1.07108  -0.92745  -0.79984  -0.76262  -0.69565
 Alpha  occ. eigenvalues --   -0.63862  -0.58414  -0.57576  -0.55188  -0.52874
 Alpha  occ. eigenvalues --   -0.52355  -0.50311  -0.48784  -0.48384  -0.46811
 Alpha  occ. eigenvalues --   -0.38243  -0.36872  -0.35105  -0.33756
 Alpha virt. eigenvalues --   -0.05879   0.10230   0.11256   0.11768   0.13168
 Alpha virt. eigenvalues --    0.15906   0.17622   0.18914   0.19584   0.24042
 Alpha virt. eigenvalues --    0.25667   0.26155   0.30320   0.35211   0.41149

 Mulliken charges:
               1
     1  C    0.269662
     2  C   -0.039637
     3  C   -0.050569
     4  C    0.277236
     5  H    0.074062
     6  H    0.074356
     7  C    0.066068
     8  H    0.074469
     9  H    0.076565
    10  H    0.078792
    11  N   -0.401385
    12  O   -0.248426
    13  O   -0.251193
 Sum of Mulliken charges =   0.00000

 Dipole moment (field-independent basis, Debye):
    X=              0.0630    Y=             -1.4766    Z=             -0.0046  Tot=              1.4779
 Quadrupole moment (field-independent basis, Debye-Ang):
   XX=            -60.2242   YY=            -35.2983   ZZ=            -44.9927
   XY=             -0.3735   XZ=              0.0033   YZ=             -0.0187

  Exact polarizability: 108.477  -0.193  74.535  -0.016   0.135  40.789
 Approx polarizability: 117.506   0.271  64.684   0.008   0.072  42.198

                      1                      2                      3
                      A                      A                      A
 Frequencies --     84.2182               147.3751               187.1107
 Red. masses --      1.0281                 7.4509                 3.9580
 Frc consts  --      0.0043                 0.0953                 0.0816
 IR Inten    --      0.0094                20.1328                 2.5929

                      4                      5                      6
                      A                      A                      A
 Frequencies --    268.4794               291.0539               394.1670
 Red. masses --      3.1253                 4.0741                 9.1967
 Frc consts  --      0.1327                 0.2033                 0.8419
 IR Inten    --      4.8589                 0.0004                37.4301

                      7                      8                      9
                      A                      A                      A
 Frequencies --    583.1574               619.9918               643.2546
 Red. masses --      3.7834                 9.0883                 1.9753
 Frc consts  --      0.7581                 2.0583                 0.4816
 IR Inten    --      0.2168                 3.1711                 0.0785

                     10                     11                     12
                      A                      A                      A
 Frequencies --    710.1218               761.1710               777.3698
 Red. masses --      7.5268                 5.1203                 8.0880
 Frc consts  --      2.2363                 1.7479                 2.8797
 IR Inten    --     69.6189                 0.9854                 0.0293

                     13                     14                     15
                      A                      A                      A
 Frequencies --    848.7744               967.7739               996.1336
 Red. masses --      2.2445                 1.9179                 1.2981
 Frc consts  --      0.9527                 1.0583                 0.7589
 IR Inten    --    106.8045                48.8691                 0.0545

                     16                     17                     18
                      A                      A                      A
 Frequencies --   1036.8955              1121.2169              1142.9688
 Red. masses --      1.2394                 2.1661                 1.3148
 Frc consts  --      0.7851                 1.6044                 1.0120
 IR Inten    --     18.7058                62.6969                 0.9668

                     19                     20                     21
                      A                      A                      A
 Frequencies --   1165.6402              1307.3341              1325.7776
 Red. masses --      4.0261                 3.1522                 2.2604
 Frc consts  --      3.2230                 3.1742                 2.3408
 IR Inten    --     14.5654               124.8113                 3.9823

                     22                     23                     24
                      A                      A                      A
 Frequencies --   1415.9973              1455.6478              1475.0907
 Red. masses --      1.3059                 1.0529                 1.2158
 Frc consts  --      1.5427                 1.3145                 1.5587
 IR Inten    --     27.1670                25.0401               117.3206

                     25                     26                     27
                      A                      A                      A
 Frequencies --   1508.3489              1694.7710              1855.8003
 Red. masses --      3.6917                 6.9859                12.6091
 Frc consts  --      4.9486                11.8220                25.5858
 IR Inten    --    326.2592                 4.6175              1443.6338

                     28                     29                     30
                      A                      A                      A
 Frequencies --   1934.5355              3076.8635              3171.1478
 Red. masses --     12.1348                 1.0336                 1.1082
 Frc consts  --     26.7569                 5.7654                 6.5660
 IR Inten    --     22.8486                32.0593                10.9692

                     31                     32                     33
                      A                      A                      A
 Frequencies --   3199.2961              3260.5499              3281.1464
 Red. masses --      1.1063                 1.0915                 1.1130
 Frc consts  --      6.6719                 6.8371                 7.0601
 IR Inten    --      0.2571                 2.0940                 4.9863

 - Thermochemistry -
 -------------------
 Temperature   298.150 Kelvin.  Pressure   1.00000 Atm.
 Atom     1 has atomic number  6 and mass  12.00000

 Molecular mass:   111.03203 amu.
 Principal axes and moments of inertia in atomic units:
                           1         2         3
     Eigenvalues --   542.49978 765.130921296.10963
           X            0.99996  -0.00878   0.00001
           Y            0.00878   0.99996  -0.00002
           Z           -0.00001   0.00002   1.00000
 This molecule is an asymmetric top.
 Rotational symmetry number  1.
 Warning -- assumption of classical behavior for rotation
           may cause significant error
 Rotational temperatures (Kelvin)      0.15966     0.11320     0.06683
 Rotational constants (GHZ):           3.32671     2.35874     1.39243
 Zero-point vibrational energy     255457.6 (Joules/Mol)
                                   61.05584 (Kcal/Mol)
 Warning -- explicit consideration of   8 degrees of freedom as
           vibrations may cause significant error
 Vibrational temperatures:    121.17   212.04   269.21   386.28   418.76
          (Kelvin)            567.12   839.03   892.03   925.50  1021.71
                             1095.15  1118.46  1221.20  1392.41  1433.21
                             1491.86  1613.18  1644.48  1677.09  1880.96
                             1907.50  2037.30  2094.35  2122.32  2170.17
                             2438.39  2670.08  2783.36  4426.91  4562.57
                             4603.07  4691.20  4720.83

 Zero-point correction=                           0.097299 (Hartree/Particle)
 Thermal correction to Energy=                    0.104362
 Thermal correction to Enthalpy=                  0.105306
 Thermal correction to Gibbs Free Energy=         0.065688
 Sum of electronic and zero-point Energies=           -398.197350
 Sum of electronic and thermal Energies=              -398.190287
 Sum of electronic and thermal Enthalpies=            -398.189343
 Sum of electronic and thermal Free Energies=         -398.228961

                     E (Thermal)             CV                S
                      KCal/Mol        Cal/Mol-Kelvin    Cal/Mol-Kelvin
 Total                   65.488             24.943             83.383
 Electronic               0.000              0.000              0.000
 Translational            0.889              2.981             40.030
 Rotational               0.889              2.981             27.778
 Vibrational             63.710             18.982             15.576
 Vibration     1          0.601              1.960              3.790
 Vibration     2          0.617              1.906              2.706
 Vibration     3          0.632              1.858              2.256
 Vibration     4          0.673              1.731              1.606
 Vibration     5          0.687              1.690              1.468
 Vibration     6          0.761              1.483              0.984
 Vibration     7          0.940              1.068              0.480
 Vibration     8          0.980              0.990              0.417

 Normal termination of Gaussian 09 at Sun Sep  6 03:05:17 2020.
