 Gaussian 09, Revision D.01,
 Gaussian 09:  ES64L-G09RevD.01 24-Apr-2013

 --------------------------------------------
 #n wB97XD/Gen scrf(smd,solvent=toluene) freq
 --------------------------------------------

 --------------------------------
 diene diels-alder toluene - freq
 --------------------------------
 Symbolic Z-matrix:
 Charge =  0 Multiplicity = 1

                         Standard orientation:
 ---------------------------------------------------------------------
 Center     Atomic      Atomic             Coordinates (Angstroms)
 Number     Number       Type             X           Y           Z
 ---------------------------------------------------------------------
      1          6           0       -2.601480    0.617880   -0.293580
      2          1           0       -2.943620    1.493260   -0.840900
      3          6           0       -1.148760    0.435250   -0.225620
      4          1           0       -0.549660    1.339530   -0.194780
      5          6           0       -3.507150   -0.168750    0.282210
      6          1           0       -3.165360   -1.010020    0.880980
      7          6           0       -4.984230    0.020850    0.191320
      8          1           0       -5.426350    0.142440    1.184290
      9          1           0       -5.242370    0.895100   -0.408370
     10          1           0       -5.461630   -0.854580   -0.258570
     11          6           0       -0.529060   -0.739780   -0.220760
     12          1           0       -1.099560   -1.660480   -0.306080
     13          6           0        0.943830   -0.952160   -0.119280
     14          1           0        1.298820   -1.490080   -1.004520
     15          1           0        1.160370   -1.575000    0.755510
     16          6           0        2.947700    0.382220    0.089130
     17          6           0        3.741050   -0.894480    0.061460
     18          1           0        3.593020   -1.419660   -0.883990
     19          1           0        4.793890   -0.653170    0.175340
     20          1           0        3.436100   -1.566020    0.865580
     21          8           0        1.610260    0.298640   -0.006320
     22          8           0        3.444110    1.470420    0.187100
 ---------------------------------------------------------------------

 SCF Done:  E(RwB97XD) =  -462.531095371     A.U. after   14 cycles

 The electronic state is 1-A.
 Alpha  occ. eigenvalues --  -19.29530 -19.22833 -10.41622 -10.35171 -10.29348
 Alpha  occ. eigenvalues --  -10.28885 -10.28466 -10.28417 -10.27979 -10.27406
 Alpha  occ. eigenvalues --   -1.21027  -1.12370  -0.92074  -0.88202  -0.85016
 Alpha  occ. eigenvalues --   -0.82300  -0.75947  -0.69831  -0.66447  -0.61396
 Alpha  occ. eigenvalues --   -0.59447  -0.59229  -0.57672  -0.54902  -0.52507
 Alpha  occ. eigenvalues --   -0.52312  -0.49943  -0.49555  -0.49044  -0.47353
 Alpha  occ. eigenvalues --   -0.47250  -0.43881  -0.43423  -0.42380  -0.39202
 Alpha  occ. eigenvalues --   -0.37708  -0.35969  -0.30360
 Alpha virt. eigenvalues --    0.04359   0.04692   0.05066   0.06237   0.07110
 Alpha virt. eigenvalues --    0.07172   0.07689   0.08026   0.08539   0.08973
 Alpha virt. eigenvalues --    0.09515   0.09886   0.10010   0.10736   0.11114

 Mulliken charges:
               1
     1  C   -0.128224
     2  H    0.150881
     3  C   -0.172380
     4  H    0.185273
     5  C   -0.159447
     6  H    0.148966
     7  C   -0.367498
     8  H    0.142649
     9  H    0.134980
    10  H    0.140952
    11  C   -0.269617
    12  H    0.164905
    13  C   -0.018149
    14  H    0.144911
    15  H    0.145515
    16  C    0.468851
    17  C   -0.480564
    18  H    0.170317
    19  H    0.180371
    20  H    0.164166
    21  O   -0.298723
    22  O   -0.448135
 Sum of Mulliken charges =   0.00000

 Dipole moment (field-independent basis, Debye):
    X=             -1.5935    Y=             -4.9949    Z=             -0.2645  Tot=              5.2496
 Quadrupole moment (field-independent basis, Debye-Ang):
   XX=            -59.0700   YY=            -61.5414   ZZ=            -61.0401
   XY=            -13.7856   XZ=             -1.4818   YZ=             -1.8590

  Exact polarizability: 168.078  -1.077 117.401  -5.015  -3.336  86.015
 Approx polarizability: 125.841   2.550 117.413  -4.283  -3.450  88.272

                      1                      2                      3
                      A                      A                      A
 Frequencies --     39.1009                55.4874                86.9011
 Red. masses --      3.2237                 2.9140                 3.6212
 Frc consts  --      0.0029                 0.0053                 0.0161
 IR Inten    --      0.9897                 1.2567                 2.0725

                      4                      5                      6
                      A                      A                      A
 Frequencies --    128.7489               138.4427               162.3455
 Red. masses --      5.2370                 1.6740                 4.3413
 Frc consts  --      0.0511                 0.0189                 0.0674
 IR Inten    --      0.0840                 4.9641                 1.0329

                      7                      8                      9
                      A                      A                      A
 Frequencies --    173.1270               208.3529               227.7493
 Red. masses --      1.2584                 1.3313                 1.4382
 Frc consts  --      0.0222                 0.0341                 0.0440
 IR Inten    --      0.9690                 4.8459                 0.3407

                     10                     11                     12
                      A                      A                      A
 Frequencies --    254.9253               342.1113               373.4006
 Red. masses --      3.8569                 2.6263                 3.0802
 Frc consts  --      0.1477                 0.1811                 0.2530
 IR Inten    --      0.7932                 1.0507                 4.1363

                     13                     14                     15
                      A                      A                      A
 Frequencies --    469.6074               537.1386               597.7991
 Red. masses --      3.7387                 4.1917                 2.5771
 Frc consts  --      0.4858                 0.7125                 0.5426
 IR Inten    --      3.9913                 7.9247                 7.0042

                     16                     17                     18
                      A                      A                      A
 Frequencies --    603.4580               711.0289               789.8948
 Red. masses --      4.6242                 2.7929                 1.7503
 Frc consts  --      0.9921                 0.8319                 0.6434
 IR Inten    --     11.0007                 8.8287                 2.4754

                     19                     20                     21
                      A                      A                      A
 Frequencies --    848.6962               866.7612               931.4049
 Red. masses --      2.3494                 2.5129                 1.7366
 Frc consts  --      0.9971                 1.1123                 0.8876
 IR Inten    --      3.4486                 0.4522                 9.1222

                     22                     23                     24
                      A                      A                      A
 Frequencies --    997.5906              1004.9220              1017.3746
 Red. masses --      1.4290                 1.6065                 1.1241
 Frc consts  --      0.8379                 0.9559                 0.6855
 IR Inten    --     25.1678                27.1514                82.4229

                     25                     26                     27
                      A                      A                      A
 Frequencies --   1037.6984              1044.1911              1074.3022
 Red. masses --      1.6241                 1.7983                 1.8249
 Frc consts  --      1.0304                 1.1552                 1.2409
 IR Inten    --     46.3105                 4.0414                10.9897

                     28                     29                     30
                      A                      A                      A
 Frequencies --   1082.8772              1097.4524              1137.3905
 Red. masses --      1.5646                 1.8640                 2.7755
 Frc consts  --      1.0809                 1.3227                 2.1155
 IR Inten    --      1.1290                 4.8156                12.6033

                     31                     32                     33
                      A                      A                      A
 Frequencies --   1154.2036              1285.1828              1291.0769
 Red. masses --      3.9214                 1.1041                 2.7287
 Frc consts  --      3.0779                 1.0744                 2.6799
 IR Inten    --     76.6574                31.4093               516.5206

                     34                     35                     36
                      A                      A                      A
 Frequencies --   1313.7197              1323.5740              1342.6963
 Red. masses --      1.6794                 1.2834                 1.3248
 Frc consts  --      1.7077                 1.3247                 1.4072
 IR Inten    --    111.5366                 9.7499                 8.3126

                     37                     38                     39
                      A                      A                      A
 Frequencies --   1354.5887              1418.3761              1423.1064
 Red. masses --      1.3442                 1.4034                 1.3519
 Frc consts  --      1.4533                 1.6634                 1.6131
 IR Inten    --      5.7839               115.6366                 6.7075

                     40                     41                     42
                      A                      A                      A
 Frequencies --   1425.9380              1470.6256              1471.5663
 Red. masses --      1.2989                 1.0789                 1.0424
 Frc consts  --      1.5561                 1.3747                 1.3300
 IR Inten    --      8.1008                32.5855                11.4295

                     43                     44                     45
                      A                      A                      A
 Frequencies --   1486.7505              1491.0370              1491.6062
 Red. masses --      1.0578                 1.0654                 1.0552
 Frc consts  --      1.3776                 1.3955                 1.3833
 IR Inten    --     11.6465                10.9308                14.8834

                     46                     47                     48
                      A                      A                      A
 Frequencies --   1745.0469              1755.1417              1837.4513
 Red. masses --      6.3761                 5.7905                11.4397
 Frc consts  --     11.4398                10.5097                22.7560
 IR Inten    --     11.0893                 0.6928               521.6033

                     49                     50                     51
                      A                      A                      A
 Frequencies --   3035.4559              3042.1547              3075.0982
 Red. masses --      1.0566                 1.0368                 1.1056
 Frc consts  --      5.7360                 5.6536                 6.1598
 IR Inten    --     34.5209                36.6563                16.6770

                     52                     53                     54
                      A                      A                      A
 Frequencies --   3080.1615              3098.8063              3126.9824
 Red. masses --      1.0389                 1.0997                 1.1011
 Frc consts  --      5.8074                 6.2217                 6.3432
 IR Inten    --      1.8410                18.4570                14.1425

                     55                     56                     57
                      A                      A                      A
 Frequencies --   3148.8148              3153.1582              3159.1913
 Red. masses --      1.1000                 1.0918                 1.0870
 Frc consts  --      6.4260                 6.3955                 6.3917
 IR Inten    --      3.7173                 3.3986                45.4022

                     58                     59                     60
                      A                      A                      A
 Frequencies --   3175.9202              3185.5718              3195.0965
 Red. masses --      1.0908                 1.0882                 1.1025
 Frc consts  --      6.4823                 6.5062                 6.6311
 IR Inten    --      7.0995                 6.8878                 6.3489

 - Thermochemistry -
 -------------------
 Temperature   298.150 Kelvin.  Pressure   1.00000 Atm.
 Atom     1 has atomic number  6 and mass  12.00000

 Molecular mass:   140.08373 amu.
 Principal axes and moments of inertia in atomic units:
                           1         2         3
     Eigenvalues --   362.400084391.256324675.83264
           X            0.99987  -0.01572  -0.00176
           Y            0.01568   0.99964  -0.02169
           Z            0.00210   0.02166   0.99976
 This molecule is an asymmetric top.
 Rotational symmetry number  1.
 Rotational temperatures (Kelvin)      0.23900     0.01972     0.01852
 Rotational constants (GHZ):           4.97997     0.41099     0.38597
 Zero-point vibrational energy     488066.7 (Joules/Mol)
                                  116.65074 (Kcal/Mol)
 Warning -- explicit consideration of  16 degrees of freedom as
           vibrations may cause significant error
 Vibrational temperatures:     56.26    79.83   125.03   185.24   199.19
          (Kelvin)            233.58   249.09   299.77   327.68   366.78
                              492.22   537.24   675.66   772.82   860.10
                              868.24  1023.01  1136.48  1221.08  1247.07
                             1340.08  1435.31  1445.86  1463.77  1493.01
                             1502.36  1545.68  1558.02  1578.99  1636.45
                             1660.64  1849.09  1857.57  1890.15  1904.33
                             1931.84  1948.95  2040.72  2047.53  2051.60
                             2115.90  2117.25  2139.10  2145.27  2146.09
                             2510.73  2525.25  2643.68  4367.34  4376.98
                             4424.37  4431.66  4458.49  4499.02  4530.44
                             4536.69  4545.37  4569.44  4583.32  4597.03

 Zero-point correction=                           0.185895 (Hartree/Particle)
 Thermal correction to Energy=                    0.197527
 Thermal correction to Enthalpy=                  0.198471
 Thermal correction to Gibbs Free Energy=         0.147362
 Sum of electronic and zero-point Energies=           -462.345201
 Sum of electronic and thermal Energies=              -462.333569
 Sum of electronic and thermal Enthalpies=            -462.332625
 Sum of electronic and thermal Free Energies=         -462.383734

                     E (Thermal)             CV                S
                      KCal/Mol        Cal/Mol-Kelvin    Cal/Mol-Kelvin
 Total                  123.950             40.341            107.568
 Electronic               0.000              0.000              0.000
 Translational            0.889              2.981             40.723
 Rotational               0.889              2.981             30.388
 Vibrational            122.172             34.380             36.457
 Vibration     1          0.594              1.981              5.304
 Vibration     2          0.596              1.975              4.612
 Vibration     3          0.601              1.958              3.729
 Vibration     4          0.611              1.924              2.965
 Vibration     5          0.614              1.915              2.825
 Vibration     6          0.622              1.889              2.522
 Vibration     7          0.627              1.876              2.401
 Vibration     8          0.642              1.828              2.058
 Vibration     9          0.651              1.799              1.897
 Vibration    10          0.665              1.754              1.696
 Vibration    11          0.721              1.591              1.202
 Vibration    12          0.745              1.527              1.066
 Vibration    13          0.827              1.317              0.739
 Vibration    14          0.892              1.168              0.571
 Vibration    15          0.956              1.036              0.453
 Vibration    16          0.962              1.024              0.444

 Normal termination of Gaussian 09 at Wed Feb  9 15:46:21 2022.
