 Gaussian 09, Revision D.01,
 Gaussian 09:  ES64L-G09RevD.01 24-Apr-2013

 -------------------------------------------
 #n wB97XD/Gen scrf(smd,solvent=toluene) opt
 -------------------------------------------

 -------------------------------
 diene diels-alder toluene - opt
 -------------------------------
 Symbolic Z-matrix:
 Charge =  0 Multiplicity = 1

 SCF Done:  E(RwB97XD) =  -462.530837938     A.U. after   14 cycles
 SCF Done:  E(RwB97XD) =  -462.531072676     A.U. after   11 cycles
 SCF Done:  E(RwB97XD) =  -462.531073341     A.U. after   10 cycles
 SCF Done:  E(RwB97XD) =  -462.531078911     A.U. after   10 cycles
 SCF Done:  E(RwB97XD) =  -462.531091934     A.U. after   10 cycles
 SCF Done:  E(RwB97XD) =  -462.531093294     A.U. after    9 cycles
 SCF Done:  E(RwB97XD) =  -462.531094458     A.U. after    9 cycles
 SCF Done:  E(RwB97XD) =  -462.531095069     A.U. after    8 cycles
 SCF Done:  E(RwB97XD) =  -462.531095337     A.U. after    8 cycles
 SCF Done:  E(RwB97XD) =  -462.531095371     A.U. after    8 cycles
 Optimization completed.
    -- Stationary point found.

                         Standard orientation:
 ---------------------------------------------------------------------
 Center     Atomic      Atomic             Coordinates (Angstroms)
 Number     Number       Type             X           Y           Z
 ---------------------------------------------------------------------
      1          6           0       -2.601479    0.617877   -0.293585
      2          1           0       -2.943625    1.493264   -0.840903
      3          6           0       -1.148761    0.435254   -0.225618
      4          1           0       -0.549661    1.339529   -0.194777
      5          6           0       -3.507152   -0.168752    0.282212
      6          1           0       -3.165359   -1.010023    0.880981
      7          6           0       -4.984235    0.020855    0.191319
      8          1           0       -5.426349    0.142438    1.184287
      9          1           0       -5.242369    0.895097   -0.408370
     10          1           0       -5.461634   -0.854579   -0.258574
     11          6           0       -0.529062   -0.739781   -0.220757
     12          1           0       -1.099563   -1.660482   -0.306083
     13          6           0        0.943828   -0.952158   -0.119275
     14          1           0        1.298819   -1.490075   -1.004517
     15          1           0        1.160369   -1.575002    0.755513
     16          6           0        2.947698    0.382223    0.089134
     17          6           0        3.741054   -0.894478    0.061457
     18          1           0        3.593017   -1.419662   -0.883992
     19          1           0        4.793890   -0.653167    0.175343
     20          1           0        3.436101   -1.566018    0.865577
     21          8           0        1.610262    0.298636   -0.006324
     22          8           0        3.444114    1.470418    0.187097
 ---------------------------------------------------------------------

 The electronic state is 1-A.
 Alpha  occ. eigenvalues --  -19.29530 -19.22833 -10.41622 -10.35171 -10.29348
 Alpha  occ. eigenvalues --  -10.28885 -10.28466 -10.28417 -10.27979 -10.27406
 Alpha  occ. eigenvalues --   -1.21027  -1.12371  -0.92074  -0.88202  -0.85016
 Alpha  occ. eigenvalues --   -0.82300  -0.75947  -0.69831  -0.66447  -0.61396
 Alpha  occ. eigenvalues --   -0.59447  -0.59229  -0.57672  -0.54902  -0.52507
 Alpha  occ. eigenvalues --   -0.52312  -0.49943  -0.49555  -0.49044  -0.47353
 Alpha  occ. eigenvalues --   -0.47250  -0.43881  -0.43423  -0.42380  -0.39202
 Alpha  occ. eigenvalues --   -0.37708  -0.35969  -0.30360
 Alpha virt. eigenvalues --    0.04359   0.04692   0.05066   0.06237   0.07110
 Alpha virt. eigenvalues --    0.07172   0.07689   0.08027   0.08539   0.08973
 Alpha virt. eigenvalues --    0.09515   0.09886   0.10010   0.10736   0.11114

 Mulliken charges:
               1
     1  C   -0.128228
     2  H    0.150880
     3  C   -0.172378
     4  H    0.185274
     5  C   -0.159450
     6  H    0.148967
     7  C   -0.367495
     8  H    0.142649
     9  H    0.134981
    10  H    0.140952
    11  C   -0.269617
    12  H    0.164906
    13  C   -0.018151
    14  H    0.144910
    15  H    0.145516
    16  C    0.468851
    17  C   -0.480564
    18  H    0.170317
    19  H    0.180371
    20  H    0.164164
    21  O   -0.298724
    22  O   -0.448133
 Sum of Mulliken charges =   0.00000

 Dipole moment (field-independent basis, Debye):
    X=             -1.5936    Y=             -4.9948    Z=             -0.2645  Tot=              5.2496
 Quadrupole moment (field-independent basis, Debye-Ang):
   XX=            -59.0702   YY=            -61.5414   ZZ=            -61.0401
   XY=            -13.7855   XZ=             -1.4817   YZ=             -1.8590

 Normal termination of Gaussian 09 at Wed Feb  9 13:29:39 2022.
