 Gaussian 09, Revision D.01,
 Gaussian 09:  ES64L-G09RevD.01 24-Apr-2013

 --------------------------------------------
 #n wB97XD/Gen scrf(smd,solvent=toluene) freq
 --------------------------------------------

 --------------------------------------
 dieneophile diels-alder toluene - freq
 --------------------------------------
 Symbolic Z-matrix:
 Charge =  0 Multiplicity = 1

                         Standard orientation:
 ---------------------------------------------------------------------
 Center     Atomic      Atomic             Coordinates (Angstroms)
 Number     Number       Type             X           Y           Z
 ---------------------------------------------------------------------
      1          6           0       -1.131730   -0.221621   -0.000239
      2          6           0       -0.630189   -1.633641   -0.000169
      3          6           0        0.693751   -1.607900    0.000181
      4          6           0        1.143120   -0.178220   -0.000159
      5          1           0       -1.299799   -2.480091   -0.000319
      6          1           0        1.395681   -2.427710    0.000441
      7          6           0       -0.050330    2.032489    0.000361
      8          1           0        0.969500    2.399040   -0.095639
      9          1           0       -0.645710    2.395209   -0.837089
     10          1           0       -0.481000    2.405439    0.930131
     11          7           0       -0.010470    0.590279   -0.002909
     12          8           0        2.270190    0.241350    0.001341
     13          8           0       -2.271830    0.162339    0.001531
 ---------------------------------------------------------------------

 SCF Done:  E(RwB97XD) =  -398.782086520     A.U. after   14 cycles

 The electronic state is 1-A.
 Alpha  occ. eigenvalues --  -19.25338 -19.25299 -14.48711 -10.41566 -10.41441
 Alpha  occ. eigenvalues --  -10.32411 -10.32312 -10.32055  -1.18836  -1.16832
 Alpha  occ. eigenvalues --   -1.07455  -0.93918  -0.81612  -0.77662  -0.70890
 Alpha  occ. eigenvalues --   -0.65873  -0.59575  -0.58896  -0.56218  -0.54380
 Alpha  occ. eigenvalues --   -0.53868  -0.51591  -0.50633  -0.49657  -0.48728
 Alpha  occ. eigenvalues --   -0.39148  -0.39079  -0.36087  -0.36004
 Alpha virt. eigenvalues --   -0.02776   0.04754   0.05833   0.06284   0.07057
 Alpha virt. eigenvalues --    0.08045   0.08863   0.09388   0.09718   0.10152
 Alpha virt. eigenvalues --    0.11769   0.11821   0.12257   0.12425   0.12941

 Mulliken charges:
               1
     1  C    0.239530
     2  C   -0.057565
     3  C   -0.094707
     4  C    0.286732
     5  H    0.210514
     6  H    0.210577
     7  C   -0.355017
     8  H    0.174295
     9  H    0.163733
    10  H    0.164115
    11  N   -0.031604
    12  O   -0.455305
    13  O   -0.455298
 Sum of Mulliken charges =   0.00000

 Dipole moment (field-independent basis, Debye):
    X=              0.0628    Y=             -1.3859    Z=             -0.0112  Tot=              1.3873
 Quadrupole moment (field-independent basis, Debye-Ang):
   XX=            -61.0338   YY=            -35.3393   ZZ=            -45.0370
   XY=             -0.3382   XZ=              0.0048   YZ=             -0.0268

  Exact polarizability: 107.171  -0.252  80.569   0.016   0.163  48.368
 Approx polarizability: 111.585   0.210  70.226   0.010   0.111  51.337

                      1                      2                      3
                      A                      A                      A
 Frequencies --     29.7651               139.7335               174.9348
 Red. masses --      1.0437                 6.4588                 4.1515
 Frc consts  --      0.0005                 0.0743                 0.0749
 IR Inten    --      0.1885                19.4680                 0.5150

                      4                      5                      6
                      A                      A                      A
 Frequencies --    269.7353               300.7609               388.3877
 Red. masses --      3.1826                 4.0696                 9.4403
 Frc consts  --      0.1364                 0.2169                 0.8390
 IR Inten    --      4.5893                 0.0008                28.5978

                      7                      8                      9
                      A                      A                      A
 Frequencies --    579.2668               619.5875               652.3585
 Red. masses --      3.9511                 9.0945                 2.0205
 Frc consts  --      0.7811                 2.0570                 0.5066
 IR Inten    --      0.1471                 3.2555                 1.5160

                     10                     11                     12
                      A                      A                      A
 Frequencies --    713.3159               751.8530               801.6529
 Red. masses --      7.6657                 5.4836                 7.1328
 Frc consts  --      2.2981                 1.8263                 2.7007
 IR Inten    --     57.9387                 0.2667                 0.0349

                     13                     14                     15
                      A                      A                      A
 Frequencies --    870.9650               964.7259              1012.9572
 Red. masses --      2.1800                 2.0804                 1.3272
 Frc consts  --      0.9743                 1.1408                 0.8024
 IR Inten    --     88.2429                48.1735                 0.0036

                     16                     17                     18
                      A                      A                      A
 Frequencies --   1061.7581              1127.1945              1159.9694
 Red. masses --      1.4510                 2.4597                 2.4586
 Frc consts  --      0.9637                 1.8413                 1.9491
 IR Inten    --     18.3280                45.1457                 4.9440

                     19                     20                     21
                      A                      A                      A
 Frequencies --   1162.4353              1298.8969              1338.7181
 Red. masses --      1.3912                 3.2315                 1.8315
 Frc consts  --      1.1076                 3.2122                 1.9339
 IR Inten    --      2.4062                81.6239                 1.2885

                     22                     23                     24
                      A                      A                      A
 Frequencies --   1440.7737              1480.9460              1489.7450
 Red. masses --      1.5795                 1.6351                 1.2911
 Frc consts  --      1.9319                 2.1128                 1.6882
 IR Inten    --     64.4258               164.8727                83.2631

                     25                     26                     27
                      A                      A                      A
 Frequencies --   1511.5230              1685.6277              1805.2887
 Red. masses --      1.2237                 6.8778                12.3612
 Frc consts  --      1.6473                11.5138                23.7358
 IR Inten    --     46.1335                 2.6598              1176.7083

                     28                     29                     30
                      A                      A                      A
 Frequencies --   1878.4401              3074.8836              3146.6427
 Red. masses --     11.7871                 1.0345                 1.1054
 Frc consts  --     24.5048                 5.7630                 6.4488
 IR Inten    --     16.3772                31.6958                13.2450

                     31                     32                     33
                      A                      A                      A
 Frequencies --   3180.5426              3260.1830              3281.6222
 Red. masses --      1.1036                 1.0904                 1.1103
 Frc consts  --      6.5777                 6.8283                 7.0451
 IR Inten    --      0.9539                 0.1967                 0.9944

 - Thermochemistry -
 -------------------
 Temperature   298.150 Kelvin.  Pressure   1.00000 Atm.
 Atom     1 has atomic number  6 and mass  12.00000

 Molecular mass:   111.03203 amu.
 Principal axes and moments of inertia in atomic units:
                           1         2         3
     Eigenvalues --   538.92178 762.312681289.89618
           X            0.99996  -0.00861   0.00001
           Y            0.00861   0.99996   0.00002
           Z           -0.00001  -0.00002   1.00000
 This molecule is an asymmetric top.
 Rotational symmetry number  1.
 Warning -- assumption of classical behavior for rotation
           may cause significant error
 Rotational temperatures (Kelvin)      0.16072     0.11362     0.06715
 Rotational constants (GHZ):           3.34880     2.36746     1.39914
 Zero-point vibrational energy     255134.7 (Joules/Mol)
                                   60.97866 (Kcal/Mol)
 Warning -- explicit consideration of   8 degrees of freedom as
           vibrations may cause significant error
 Vibrational temperatures:     42.83   201.05   251.69   388.09   432.73
          (Kelvin)            558.80   833.43   891.45   938.60  1026.30
                             1081.75  1153.40  1253.12  1388.02  1457.42
                             1527.63  1621.78  1668.94  1672.48  1868.82
                             1926.11  2072.95  2130.75  2143.41  2174.74
                             2425.24  2597.40  2702.65  4424.07  4527.31
                             4576.09  4690.67  4721.52

 Zero-point correction=                           0.097176 (Hartree/Particle)
 Thermal correction to Energy=                    0.104356
 Thermal correction to Enthalpy=                  0.105300
 Thermal correction to Gibbs Free Energy=         0.064651
 Sum of electronic and zero-point Energies=           -398.684911
 Sum of electronic and thermal Energies=              -398.677730
 Sum of electronic and thermal Enthalpies=            -398.676786
 Sum of electronic and thermal Free Energies=         -398.717436

                     E (Thermal)             CV                S
                      KCal/Mol        Cal/Mol-Kelvin    Cal/Mol-Kelvin
 Total                   65.485             24.843             85.554
 Electronic               0.000              0.000              0.000
 Translational            0.889              2.981             40.030
 Rotational               0.889              2.981             27.763
 Vibrational             63.707             18.882             17.762
 Vibration     1          0.594              1.984              5.845
 Vibration     2          0.615              1.914              2.808
 Vibration     3          0.627              1.873              2.382
 Vibration     4          0.674              1.729              1.598
 Vibration     5          0.693              1.672              1.413
 Vibration     6          0.757              1.495              1.006
 Vibration     7          0.936              1.076              0.487
 Vibration     8          0.980              0.991              0.417

 Normal termination of Gaussian 09 at Wed Feb  9 15:13:24 2022.
