 Gaussian 09, Revision D.01,
 Gaussian 09:  ES64L-G09RevD.01 24-Apr-2013

 -------------------------------------------
 #n wB97XD/Gen scrf(smd,solvent=toluene) opt
 -------------------------------------------

 -------------------------------------
 dieneophile diels-alder toluene - opt
 -------------------------------------
 Symbolic Z-matrix:
 Charge =  0 Multiplicity = 1

 SCF Done:  E(RwB97XD) =  -398.781961885     A.U. after   14 cycles
 SCF Done:  E(RwB97XD) =  -398.782084145     A.U. after   10 cycles
 SCF Done:  E(RwB97XD) =  -398.782086310     A.U. after    9 cycles
 SCF Done:  E(RwB97XD) =  -398.782085920     A.U. after    9 cycles
 SCF Done:  E(RwB97XD) =  -398.782086520     A.U. after    9 cycles
 Optimization completed.
    -- Stationary point found.

                         Standard orientation:
 ---------------------------------------------------------------------
 Center     Atomic      Atomic             Coordinates (Angstroms)
 Number     Number       Type             X           Y           Z
 ---------------------------------------------------------------------
      1          6           0       -1.131733   -0.221624   -0.000239
      2          6           0       -0.630194   -1.633640   -0.000169
      3          6           0        0.693752   -1.607899    0.000179
      4          6           0        1.143123   -0.178219   -0.000160
      5          1           0       -1.299803   -2.480093   -0.000320
      6          1           0        1.395683   -2.427713    0.000438
      7          6           0       -0.050334    2.032491    0.000359
      8          1           0        0.969498    2.399036   -0.095644
      9          1           0       -0.645707    2.395213   -0.837094
     10          1           0       -0.480999    2.405436    0.930131
     11          7           0       -0.010471    0.590276   -0.002905
     12          8           0        2.270194    0.241351    0.001343
     13          8           0       -2.271826    0.162341    0.001532
 ---------------------------------------------------------------------

 The electronic state is 1-A.
 Alpha  occ. eigenvalues --  -19.25338 -19.25299 -14.48710 -10.41566 -10.41441
 Alpha  occ. eigenvalues --  -10.32411 -10.32312 -10.32055  -1.18836  -1.16833
 Alpha  occ. eigenvalues --   -1.07455  -0.93918  -0.81612  -0.77663  -0.70890
 Alpha  occ. eigenvalues --   -0.65873  -0.59575  -0.58896  -0.56218  -0.54380
 Alpha  occ. eigenvalues --   -0.53868  -0.51591  -0.50633  -0.49657  -0.48728
 Alpha  occ. eigenvalues --   -0.39148  -0.39079  -0.36087  -0.36004
 Alpha virt. eigenvalues --   -0.02776   0.04754   0.05833   0.06284   0.07057
 Alpha virt. eigenvalues --    0.08045   0.08863   0.09388   0.09718   0.10152
 Alpha virt. eigenvalues --    0.11769   0.11821   0.12257   0.12425   0.12941

 Mulliken charges:
               1
     1  C    0.239528
     2  C   -0.057567
     3  C   -0.094709
     4  C    0.286731
     5  H    0.210515
     6  H    0.210578
     7  C   -0.355016
     8  H    0.174295
     9  H    0.163734
    10  H    0.164115
    11  N   -0.031605
    12  O   -0.455305
    13  O   -0.455293
 Sum of Mulliken charges =   0.00000

 Dipole moment (field-independent basis, Debye):
    X=              0.0628    Y=             -1.3859    Z=             -0.0113  Tot=              1.3873
 Quadrupole moment (field-independent basis, Debye-Ang):
   XX=            -61.0337   YY=            -35.3393   ZZ=            -45.0370
   XY=             -0.3382   XZ=              0.0048   YZ=             -0.0269

 Normal termination of Gaussian 09 at Wed Feb  9 13:03:45 2022.
