 Gaussian 09, Revision D.01,
 Gaussian 09:  ES64L-G09RevD.01 24-Apr-2013

 --------------------------------------------
 #n wB97XD/Gen scrf(smd,solvent=toluene) freq
 --------------------------------------------

 ----------------------------------
 clasisen product in toluene - freq
 ----------------------------------
 Symbolic Z-matrix:
 Charge =  0 Multiplicity = 1

                         Standard orientation:
 ---------------------------------------------------------------------
 Center     Atomic      Atomic             Coordinates (Angstroms)
 Number     Number       Type             X           Y           Z
 ---------------------------------------------------------------------
      1          6           0       -2.875390    0.206961   -0.206990
      2          6           0       -1.561960    0.819151   -0.668360
      3          6           0       -0.585400   -0.372519   -0.708040
      4          6           0       -1.387701   -1.546629   -0.165590
      5          1           0       -1.745840    1.196381   -1.675680
      6          1           0       -0.365250   -0.636899   -1.745840
      7          6           0       -3.742541   -2.000729    0.514100
      8          1           0       -3.316981   -2.986059    0.687470
      9          1           0       -4.164801   -1.611829    1.439990
     10          1           0       -4.532641   -2.066829   -0.233600
     11          7           0       -2.685901   -1.132849    0.047240
     12          8           0       -0.983601   -2.662659    0.034740
     13          8           0       -3.929680    0.775461   -0.070910
     14          6           0        0.742600   -0.236799    0.053340
     15          1           0        1.045249   -1.242589    0.351740
     16          6           0       -1.192080    2.017721    0.234870
     17          1           0       -2.125250    2.385601    0.667000
     18          6           0       -0.278770    1.616741    1.357420
     19          1           0       -0.323250    2.218491    2.259150
     20          6           0        0.591600    0.619761    1.278530
     21          1           0        1.248780    0.410411    2.114180
     22          6           0       -0.601220    3.182771   -0.564800
     23          1           0       -1.325520    3.553951   -1.292850
     24          1           0       -0.337770    4.008361    0.098960
     25          1           0        0.303030    2.889371   -1.100060
     26          6           0        1.830510    0.284171   -0.887410
     27          1           0        1.983010   -0.419929   -1.706080
     28          1           0        1.565420    1.258561   -1.293650
     29          6           0        3.907030   -0.543249   -0.096150
     30          6           0        5.134430   -0.161499    0.673750
     31          1           0        4.860170    0.062301    1.706390
     32          1           0        5.850159   -0.979010    0.657910
     33          1           0        5.582500    0.737651    0.250250
     34          8           0        3.685779   -1.630079   -0.559920
     35          8           0        3.066710    0.496891   -0.204410
 ---------------------------------------------------------------------

 SCF Done:  E(RwB97XD) =  -861.394260438     A.U. after   14 cycles

 The electronic state is 1-A.
 Alpha  occ. eigenvalues --  -19.29748 -19.23922 -19.23898 -19.23601 -14.49170
 Alpha  occ. eigenvalues --  -10.41659 -10.40438 -10.40253 -10.34236 -10.31747
 Alpha  occ. eigenvalues --  -10.31427 -10.31084 -10.30350 -10.30239 -10.28748
 Alpha  occ. eigenvalues --  -10.28617 -10.28496 -10.27728  -1.21525  -1.18033
 Alpha  occ. eigenvalues --   -1.15791  -1.12448  -1.06580  -0.96837  -0.90273
 Alpha  occ. eigenvalues --   -0.89272  -0.86128  -0.82745  -0.80221  -0.78891
 Alpha  occ. eigenvalues --   -0.74967  -0.71497  -0.71180  -0.66471  -0.64491
 Alpha  occ. eigenvalues --   -0.61584  -0.59966  -0.59613  -0.58287  -0.57737
 Alpha  occ. eigenvalues --   -0.57028  -0.56536  -0.55516  -0.53858  -0.53015
 Alpha  occ. eigenvalues --   -0.52452  -0.51715  -0.51096  -0.50870  -0.49834
 Alpha  occ. eigenvalues --   -0.48962  -0.48805  -0.48332  -0.46874  -0.46261
 Alpha  occ. eigenvalues --   -0.46061  -0.44978  -0.44483  -0.42448  -0.41768
 Alpha  occ. eigenvalues --   -0.39674  -0.39112  -0.37511  -0.36598  -0.36275
 Alpha  occ. eigenvalues --   -0.34610  -0.33558
 Alpha virt. eigenvalues --    0.04137   0.04890   0.04901   0.05201   0.05513
 Alpha virt. eigenvalues --    0.06695   0.06722   0.07062   0.07517   0.07701
 Alpha virt. eigenvalues --    0.08048   0.08407   0.08511   0.09330   0.09496

 Mulliken charges:
               1
     1  C    0.141553
     2  C   -0.023487
     3  C    0.072156
     4  C    0.118788
     5  H    0.135882
     6  H    0.137814
     7  C   -0.371764
     8  H    0.184081
     9  H    0.174312
    10  H    0.170920
    11  N    0.072378
    12  O   -0.478551
    13  O   -0.467155
    14  C    0.087662
    15  H    0.170052
    16  C    0.052095
    17  H    0.129217
    18  C   -0.156967
    19  H    0.169242
    20  C   -0.217662
    21  H    0.164209
    22  C   -0.419420
    23  H    0.154327
    24  H    0.151685
    25  H    0.123719
    26  C   -0.411992
    27  H    0.171431
    28  H    0.145931
    29  C    0.375915
    30  C   -0.379587
    31  H    0.170450
    32  H    0.171937
    33  H    0.170233
    34  O   -0.416506
    35  O   -0.272899
 Sum of Mulliken charges =   0.00000

 Dipole moment (field-independent basis, Debye):
    X=              1.0714    Y=              3.2654    Z=              0.0525  Tot=              3.4371
 Quadrupole moment (field-independent basis, Debye-Ang):
   XX=           -108.2526   YY=           -116.4502   ZZ=            -99.5278
   XY=             14.4376   XZ=              4.9449   YZ=             -2.0530

  Exact polarizability: 213.811 -14.306 198.730   2.092  -0.027 148.028
 Approx polarizability: 185.593 -19.719 194.809   0.575   1.513 154.520

                      1                      2                      3
                      A                      A                      A
 Frequencies --     22.8247                32.9179                56.4880
 Red. masses --      7.3905                 5.4487                 7.9586
 Frc consts  --      0.0023                 0.0035                 0.0150
 IR Inten    --      0.1211                 0.6777                 1.7864

                      4                      5                      6
                      A                      A                      A
 Frequencies --     71.0603                92.7184               124.0075
 Red. masses --      3.5194                 3.1050                 2.5159
 Frc consts  --      0.0105                 0.0157                 0.0228
 IR Inten    --      3.8121                 3.4182                 3.3960

                      7                      8                      9
                      A                      A                      A
 Frequencies --    136.2202               142.0709               152.2733
 Red. masses --      1.6586                 3.2099                 1.0540
 Frc consts  --      0.0181                 0.0382                 0.0144
 IR Inten    --      0.4696                 6.1709                 0.1677

                     10                     11                     12
                      A                      A                      A
 Frequencies --    169.9455               208.0586               231.5717
 Red. masses --      3.8618                 3.3178                 4.7541
 Frc consts  --      0.0657                 0.0846                 0.1502
 IR Inten    --      5.4103                 2.7878                 0.4652

                     13                     14                     15
                      A                      A                      A
 Frequencies --    253.7154               265.7568               288.3034
 Red. masses --      3.1627                 1.5682                 1.9917
 Frc consts  --      0.1199                 0.0653                 0.0975
 IR Inten    --      2.8283                 2.8787                 3.3052

                     16                     17                     18
                      A                      A                      A
 Frequencies --    299.0829               317.8275               337.7870
 Red. masses --      2.9914                 4.3936                 2.9529
 Frc consts  --      0.1577                 0.2615                 0.1985
 IR Inten    --      4.0504                 7.4844                 9.1775

                     19                     20                     21
                      A                      A                      A
 Frequencies --    407.8903               422.5106               463.9109
 Red. masses --      5.0605                 4.3923                 3.7130
 Frc consts  --      0.4961                 0.4620                 0.4708
 IR Inten    --     36.1289                 7.5075                10.4402

                     22                     23                     24
                      A                      A                      A
 Frequencies --    493.0647               540.4871               587.6147
 Red. masses --      3.9590                 4.1032                 2.9928
 Frc consts  --      0.5671                 0.7062                 0.6088
 IR Inten    --      4.5107                 5.4379                 1.4444

                     25                     26                     27
                      A                      A                      A
 Frequencies --    619.1196               620.4693               628.5697
 Red. masses --      7.5570                 3.7044                 2.9970
 Frc consts  --      1.7067                 0.8403                 0.6977
 IR Inten    --      4.3812                 6.9136                 3.2958

                     28                     29                     30
                      A                      A                      A
 Frequencies --    658.3514               661.5761               704.0653
 Red. masses --      4.8407                 5.5265                 3.5276
 Frc consts  --      1.2361                 1.4251                 1.0303
 IR Inten    --      5.4299                 6.0104                 3.5907

                     31                     32                     33
                      A                      A                      A
 Frequencies --    760.9132               802.6198               813.5978
 Red. masses --      1.5664                 5.5869                 5.5937
 Frc consts  --      0.5343                 2.1205                 2.1816
 IR Inten    --     75.0804                12.0538                 8.3003

                     34                     35                     36
                      A                      A                      A
 Frequencies --    826.0786               846.9629               894.6397
 Red. masses --      3.6109                 2.4651                 3.7394
 Frc consts  --      1.4518                 1.0419                 1.7634
 IR Inten    --      4.8181                30.6813                 4.5865

                     37                     38                     39
                      A                      A                      A
 Frequencies --    934.5538               942.0184               977.5192
 Red. masses --      2.1742                 3.5616                 1.9933
 Frc consts  --      1.1188                 1.8621                 1.1222
 IR Inten    --      7.0843                 1.7966                21.6956

                     40                     41                     42
                      A                      A                      A
 Frequencies --   1014.4436              1017.2619              1023.2956
 Red. masses --      1.5500                 1.9943                 1.5215
 Frc consts  --      0.9398                 1.2159                 0.9387
 IR Inten    --     25.3956                 1.3898                20.1000

                     43                     44                     45
                      A                      A                      A
 Frequencies --   1065.8140              1072.5515              1079.1961
 Red. masses --      2.1318                 2.1759                 1.8370
 Frc consts  --      1.4268                 1.4748                 1.2606
 IR Inten    --      1.0870                 8.2549                 9.1452

                     46                     47                     48
                      A                      A                      A
 Frequencies --   1092.0468              1101.5332              1112.5508
 Red. masses --      2.9978                 4.4410                 2.2959
 Frc consts  --      2.1064                 3.1748                 1.6743
 IR Inten    --     25.2959                61.9496                20.3437

                     49                     50                     51
                      A                      A                      A
 Frequencies --   1117.0402              1149.0358              1161.3631
 Red. masses --      3.0584                 1.8558                 1.9023
 Frc consts  --      2.2485                 1.4436                 1.5117
 IR Inten    --     61.3519                12.2562                70.5542

                     52                     53                     54
                      A                      A                      A
 Frequencies --   1163.9737              1171.6570              1211.5254
 Red. masses --      1.7869                 1.3975                 1.1153
 Frc consts  --      1.4264                 1.1303                 0.9645
 IR Inten    --     28.7113                14.2696                 1.0563

                     55                     56                     57
                      A                      A                      A
 Frequencies --   1268.9757              1279.3367              1286.2810
 Red. masses --      1.5489                 2.2542                 1.3920
 Frc consts  --      1.4696                 2.1738                 1.3570
 IR Inten    --     31.7737               368.3039                15.1742

                     58                     59                     60
                      A                      A                      A
 Frequencies --   1305.8344              1323.7812              1332.0055
 Red. masses --      1.5285                 1.5030                 1.4635
 Frc consts  --      1.5356                 1.5518                 1.5298
 IR Inten    --     50.1429                 6.5793               174.8793

                     61                     62                     63
                      A                      A                      A
 Frequencies --   1336.8800              1362.0867              1368.3565
 Red. masses --      2.7073                 1.5238                 1.3521
 Frc consts  --      2.8509                 1.6657                 1.4916
 IR Inten    --    134.0873                26.8734                 9.0387

                     64                     65                     66
                      A                      A                      A
 Frequencies --   1385.9836              1402.6913              1407.7002
 Red. masses --      1.3860                 1.5015                 1.2885
 Frc consts  --      1.5687                 1.7406                 1.5044
 IR Inten    --      2.4842                 2.8290                13.8377

                     67                     68                     69
                      A                      A                      A
 Frequencies --   1415.8028              1434.4266              1444.0067
 Red. masses --      1.3109                 1.4086                 1.6092
 Frc consts  --      1.5482                 1.7076                 1.9769
 IR Inten    --     68.7664                29.1658                10.1321

                     70                     71                     72
                      A                      A                      A
 Frequencies --   1446.4075              1471.4594              1480.1625
 Red. masses --      1.7761                 1.0519                 1.0474
 Frc consts  --      2.1892                 1.3419                 1.3521
 IR Inten    --     73.2009                19.5724                16.1927

                     73                     74                     75
                      A                      A                      A
 Frequencies --   1480.8610              1489.7888              1494.2405
 Red. masses --      2.2230                 1.0458                 1.0766
 Frc consts  --      2.8722                 1.3675                 1.4163
 IR Inten    --    225.4528                17.5584                10.3954

                     76                     77                     78
                      A                      A                      A
 Frequencies --   1498.9017              1510.9162              1516.1744
 Red. masses --      1.0644                 1.0882                 1.1616
 Frc consts  --      1.4090                 1.4637                 1.5733
 IR Inten    --      8.2320                15.7162                43.5723

                     79                     80                     81
                      A                      A                      A
 Frequencies --   1747.7633              1789.4529              1826.4910
 Red. masses --      6.8425                12.7781                10.9594
 Frc consts  --     12.3148                24.1078                21.5412
 IR Inten    --      4.3249               928.4919               374.2575

                     82                     83                     84
                      A                      A                      A
 Frequencies --   1867.2330              3058.5965              3074.7730
 Red. masses --     12.0881                 1.0365                 1.0836
 Frc consts  --     24.8316                 5.7129                 6.0358
 IR Inten    --     62.7724                29.3734                 7.8588

                     85                     86                     87
                      A                      A                      A
 Frequencies --   3079.3992              3079.5563              3079.7764
 Red. masses --      1.0768                 1.0388                 1.0400
 Frc consts  --      6.0160                 5.8042                 5.8120
 IR Inten    --      5.8653                 1.2026                26.2121

                     88                     89                     90
                      A                      A                      A
 Frequencies --   3098.6157              3102.1212              3104.8780
 Red. masses --      1.0826                 1.0845                 1.0637
 Frc consts  --      6.1245                 6.1490                 6.0419
 IR Inten    --      2.4530                 5.6895                33.0904

                     91                     92                     93
                      A                      A                      A
 Frequencies --   3130.8393              3144.9457              3151.3886
 Red. masses --      1.1026                 1.1024                 1.0993
 Frc consts  --      6.3679                 6.4241                 6.4323
 IR Inten    --     27.5321                38.5318                 3.5155

                     94                     95                     96
                      A                      A                      A
 Frequencies --   3153.4989              3176.4724              3178.6914
 Red. masses --      1.1058                 1.0873                 1.1000
 Frc consts  --      6.4790                 6.4636                 6.5484
 IR Inten    --     10.0988                 8.6790                 7.6205

                     97                     98                     99
                      A                      A                      A
 Frequencies --   3184.6541              3195.3227              3207.1021
 Red. masses --      1.1047                 1.1039                 1.0965
 Frc consts  --      6.6009                 6.6405                 6.6448
 IR Inten    --      0.4261                 6.2146                16.9672

 - Thermochemistry -
 -------------------
 Temperature   298.150 Kelvin.  Pressure   1.00000 Atm.
 Atom     1 has atomic number  6 and mass  12.00000

 Molecular mass:   251.11576 amu.
 Principal axes and moments of inertia in atomic units:
                           1         2         3
     Eigenvalues --  2388.433346777.677788365.78815
           X            0.99994   0.01001   0.00386
           Y           -0.00996   0.99985  -0.01405
           Z           -0.00400   0.01401   0.99989
 This molecule is an asymmetric top.
 Rotational symmetry number  1.
 Warning -- assumption of classical behavior for rotation
           may cause significant error
 Rotational temperatures (Kelvin)      0.03626     0.01278     0.01035
 Rotational constants (GHZ):           0.75562     0.26628     0.21573
 Zero-point vibrational energy     768822.5 (Joules/Mol)
                                  183.75299 (Kcal/Mol)
 Warning -- explicit consideration of  26 degrees of freedom as
           vibrations may cause significant error
 Vibrational temperatures:     32.84    47.36    81.27   102.24   133.40
          (Kelvin)            178.42   195.99   204.41   219.09   244.51
                              299.35   333.18   365.04   382.36   414.80
                              430.31   457.28   486.00   586.86   607.90
                              667.46   709.41   777.64   845.45   890.77
                              892.72   904.37   947.22   951.86  1012.99
                             1094.78  1154.79  1170.58  1188.54  1218.59
                             1287.19  1344.61  1355.35  1406.43  1459.56
                             1463.61  1472.29  1533.47  1543.16  1552.72
                             1571.21  1584.86  1600.71  1607.17  1653.20
                             1670.94  1674.70  1685.75  1743.11  1825.77
                             1840.68  1850.67  1878.80  1904.62  1916.46
                             1923.47  1959.74  1968.76  1994.12  2018.16
                             2025.36  2037.02  2063.82  2077.60  2081.06
                             2117.10  2129.62  2130.63  2143.47  2149.88
                             2156.58  2173.87  2181.43  2514.64  2574.62
                             2627.91  2686.53  4400.63  4423.91  4430.56
                             4430.79  4431.11  4458.21  4463.25  4467.22
                             4504.57  4524.87  4534.14  4537.18  4570.23
                             4573.42  4582.00  4597.35  4614.30

 Zero-point correction=                           0.292829 (Hartree/Particle)
 Thermal correction to Energy=                    0.310071
 Thermal correction to Enthalpy=                  0.311015
 Thermal correction to Gibbs Free Energy=         0.246429
 Sum of electronic and zero-point Energies=           -861.101431
 Sum of electronic and thermal Energies=              -861.084189
 Sum of electronic and thermal Enthalpies=            -861.083245
 Sum of electronic and thermal Free Energies=         -861.147832

                     E (Thermal)             CV                S
                      KCal/Mol        Cal/Mol-Kelvin    Cal/Mol-Kelvin
 Total                  194.573             64.236            135.934
 Electronic               0.000              0.000              0.000
 Translational            0.889              2.981             42.463
 Rotational               0.889              2.981             33.271
 Vibrational            192.795             58.274             60.201
 Vibration     1          0.593              1.985              6.372
 Vibration     2          0.594              1.983              5.645
 Vibration     3          0.596              1.975              4.576
 Vibration     4          0.598              1.968              4.124
 Vibration     5          0.602              1.954              3.602
 Vibration     6          0.610              1.929              3.037
 Vibration     7          0.614              1.917              2.856
 Vibration     8          0.616              1.911              2.776
 Vibration     9          0.619              1.900              2.644
 Vibration    10          0.625              1.879              2.436
 Vibration    11          0.641              1.828              2.061
 Vibration    12          0.653              1.793              1.867
 Vibration    13          0.665              1.757              1.705
 Vibration    14          0.672              1.736              1.624
 Vibration    15          0.685              1.695              1.484
 Vibration    16          0.692              1.675              1.422
 Vibration    17          0.704              1.640              1.321
 Vibration    18          0.718              1.600              1.223
 Vibration    19          0.772              1.453              0.934
 Vibration    20          0.785              1.421              0.883
 Vibration    21          0.821              1.330              0.755
 Vibration    22          0.849              1.265              0.676
 Vibration    23          0.896              1.161              0.564
 Vibration    24          0.945              1.058              0.471
 Vibration    25          0.979              0.992              0.418
 Vibration    26          0.981              0.989              0.416

 Normal termination of Gaussian 09 at Fri Feb 11 20:43:03 2022.
