 Gaussian 09, Revision D.01,
 Gaussian 09:  ES64L-G09RevD.01 24-Apr-2013

 -------------------------------------------
 #n wB97XD/Gen scrf(smd,solvent=toluene) opt
 -------------------------------------------

 ------------------------------------
 diels-alder product in toluene - opt
 ------------------------------------
 Symbolic Z-matrix:
 Charge =  0 Multiplicity = 1

 SCF Done:  E(RwB97XD) =  -861.393606735     A.U. after   14 cycles
 SCF Done:  E(RwB97XD) =  -861.393998832     A.U. after   13 cycles
 SCF Done:  E(RwB97XD) =  -861.393950403     A.U. after   11 cycles
 SCF Done:  E(RwB97XD) =  -861.394105270     A.U. after   11 cycles
 SCF Done:  E(RwB97XD) =  -861.394116978     A.U. after   10 cycles
 SCF Done:  E(RwB97XD) =  -861.394151263     A.U. after   12 cycles
 SCF Done:  E(RwB97XD) =  -861.394177032     A.U. after   11 cycles
 SCF Done:  E(RwB97XD) =  -861.394190995     A.U. after   11 cycles
 SCF Done:  E(RwB97XD) =  -861.394197736     A.U. after   11 cycles
 SCF Done:  E(RwB97XD) =  -861.394202371     A.U. after   10 cycles
 SCF Done:  E(RwB97XD) =  -861.394025322     A.U. after   13 cycles
 SCF Done:  E(RwB97XD) =  -861.394257039     A.U. after   12 cycles
 SCF Done:  E(RwB97XD) =  -861.394238060     A.U. after   11 cycles
 SCF Done:  E(RwB97XD) =  -861.394233645     A.U. after   12 cycles
 SCF Done:  E(RwB97XD) =  -861.394259204     A.U. after   11 cycles
 SCF Done:  E(RwB97XD) =  -861.394259731     A.U. after   10 cycles
 SCF Done:  E(RwB97XD) =  -861.394259973     A.U. after   10 cycles
 SCF Done:  E(RwB97XD) =  -861.394260334     A.U. after    8 cycles
 SCF Done:  E(RwB97XD) =  -861.394260408     A.U. after    8 cycles
 SCF Done:  E(RwB97XD) =  -861.394260438     A.U. after    7 cycles
 Optimization completed.
    -- Stationary point found.

                         Standard orientation:
 ---------------------------------------------------------------------
 Center     Atomic      Atomic             Coordinates (Angstroms)
 Number     Number       Type             X           Y           Z
 ---------------------------------------------------------------------
      1          6           0       -2.875389    0.206958   -0.206985
      2          6           0       -1.561963    0.819152   -0.668357
      3          6           0       -0.585405   -0.372516   -0.708042
      4          6           0       -1.387705   -1.546627   -0.165594
      5          1           0       -1.745836    1.196379   -1.675677
      6          1           0       -0.365251   -0.636897   -1.745843
      7          6           0       -3.742537   -2.000730    0.514096
      8          1           0       -3.316981   -2.986058    0.687470
      9          1           0       -4.164798   -1.611835    1.439990
     10          1           0       -4.532644   -2.066833   -0.233599
     11          7           0       -2.685899   -1.132851    0.047244
     12          8           0       -0.983601   -2.662658    0.034741
     13          8           0       -3.929682    0.775462   -0.070912
     14          6           0        0.742602   -0.236801    0.053339
     15          1           0        1.045247   -1.242593    0.351743
     16          6           0       -1.192083    2.017723    0.234866
     17          1           0       -2.125252    2.385602    0.666995
     18          6           0       -0.278769    1.616742    1.357420
     19          1           0       -0.323251    2.218486    2.259153
     20          6           0        0.591597    0.619759    1.278531
     21          1           0        1.248780    0.410410    2.114180
     22          6           0       -0.601220    3.182772   -0.564804
     23          1           0       -1.325518    3.553947   -1.292850
     24          1           0       -0.337767    4.008360    0.098960
     25          1           0        0.303035    2.889371   -1.100057
     26          6           0        1.830513    0.284172   -0.887409
     27          1           0        1.983014   -0.419932   -1.706084
     28          1           0        1.565420    1.258561   -1.293649
     29          6           0        3.907031   -0.543248   -0.096148
     30          6           0        5.134435   -0.161496    0.673754
     31          1           0        4.860170    0.062297    1.706393
     32          1           0        5.850161   -0.979015    0.657908
     33          1           0        5.582502    0.737649    0.250251
     34          8           0        3.685779   -1.630083   -0.559923
     35          8           0        3.066707    0.496890   -0.204405
 ---------------------------------------------------------------------

 The electronic state is 1-A.
 Alpha  occ. eigenvalues --  -19.29748 -19.23922 -19.23898 -19.23601 -14.49170
 Alpha  occ. eigenvalues --  -10.41659 -10.40438 -10.40253 -10.34236 -10.31747
 Alpha  occ. eigenvalues --  -10.31427 -10.31084 -10.30350 -10.30239 -10.28748
 Alpha  occ. eigenvalues --  -10.28617 -10.28496 -10.27728  -1.21525  -1.18033
 Alpha  occ. eigenvalues --   -1.15791  -1.12448  -1.06581  -0.96837  -0.90273
 Alpha  occ. eigenvalues --   -0.89272  -0.86128  -0.82745  -0.80221  -0.78891
 Alpha  occ. eigenvalues --   -0.74967  -0.71497  -0.71180  -0.66471  -0.64491
 Alpha  occ. eigenvalues --   -0.61584  -0.59966  -0.59613  -0.58287  -0.57737
 Alpha  occ. eigenvalues --   -0.57028  -0.56536  -0.55516  -0.53858  -0.53015
 Alpha  occ. eigenvalues --   -0.52452  -0.51715  -0.51096  -0.50870  -0.49834
 Alpha  occ. eigenvalues --   -0.48962  -0.48805  -0.48332  -0.46874  -0.46261
 Alpha  occ. eigenvalues --   -0.46061  -0.44978  -0.44483  -0.42448  -0.41768
 Alpha  occ. eigenvalues --   -0.39674  -0.39112  -0.37511  -0.36598  -0.36275
 Alpha  occ. eigenvalues --   -0.34610  -0.33558
 Alpha virt. eigenvalues --    0.04137   0.04890   0.04901   0.05201   0.05513
 Alpha virt. eigenvalues --    0.06695   0.06722   0.07062   0.07517   0.07701
 Alpha virt. eigenvalues --    0.08048   0.08407   0.08511   0.09330   0.09496

 Mulliken charges:
               1
     1  C    0.141556
     2  C   -0.023485
     3  C    0.072151
     4  C    0.118791
     5  H    0.135882
     6  H    0.137814
     7  C   -0.371765
     8  H    0.184082
     9  H    0.174312
    10  H    0.170921
    11  N    0.072382
    12  O   -0.478555
    13  O   -0.467159
    14  C    0.087662
    15  H    0.170053
    16  C    0.052085
    17  H    0.129217
    18  C   -0.156960
    19  H    0.169242
    20  C   -0.217663
    21  H    0.164209
    22  C   -0.419418
    23  H    0.154327
    24  H    0.151685
    25  H    0.123719
    26  C   -0.411991
    27  H    0.171430
    28  H    0.145932
    29  C    0.375915
    30  C   -0.379585
    31  H    0.170450
    32  H    0.171937
    33  H    0.170234
    34  O   -0.416511
    35  O   -0.272897
 Sum of Mulliken charges =   0.00000

 Dipole moment (field-independent basis, Debye):
    X=              1.0714    Y=              3.2655    Z=              0.0525  Tot=              3.4372
 Quadrupole moment (field-independent basis, Debye-Ang):
   XX=           -108.2525   YY=           -116.4503   ZZ=            -99.5278
   XY=             14.4378   XZ=              4.9450   YZ=             -2.0531

 Normal termination of Gaussian 09 at Thu Feb 10 04:26:22 2022.
