 Gaussian 09, Revision D.01,
 Gaussian 09:  ES64L-G09RevD.01 24-Apr-2013

 --------------------------------------------
 #n wB97XD/Gen scrf(smd,solvent=toluene) freq
 --------------------------------------------

 -----------------------------
 ts diels-alder toluene - freq
 -----------------------------
 Symbolic Z-matrix:
 Charge =  0 Multiplicity = 1

                         Standard orientation:
 ---------------------------------------------------------------------
 Center     Atomic      Atomic             Coordinates (Angstroms)
 Number     Number       Type             X           Y           Z
 ---------------------------------------------------------------------
      1          6           0       -2.634530   -0.656289    0.558830
      2          6           0       -1.630880    0.303220    1.082730
      3          6           0       -0.376570   -0.251160    0.889020
      4          6           0       -0.570321   -1.575320    0.239510
      5          1           0       -1.906860    0.999300    1.856880
      6          1           0        0.492050   -0.076671    1.502940
      7          6           0       -2.515501   -2.843159   -0.672960
      8          1           0       -2.033661   -3.035400   -1.630940
      9          1           0       -2.415681   -3.729729   -0.045140
     10          1           0       -3.571361   -2.635769   -0.832330
     11          7           0       -1.920541   -1.692200   -0.040240
     12          8           0        0.255879   -2.421780   -0.016200
     13          8           0       -3.838950   -0.603739    0.620650
     14          6           0       -0.814069    2.611700   -0.297140
     15          1           0       -0.867019    3.586110    0.178500
     16          6           0        0.447341    2.045379   -0.470910
     17          1           0        1.307191    2.597509   -0.110190
     18          6           0       -1.991399    1.922340   -0.487950
     19          1           0       -1.999020    1.099500   -1.195070
     20          6           0       -3.326189    2.525881   -0.198670
     21          1           0       -4.032309    1.769981    0.147720
     22          1           0       -3.256699    3.313801    0.552580
     23          1           0       -3.744359    2.960511   -1.111700
     24          6           0        0.627190    0.731979   -0.844730
     25          1           0       -0.110360    0.257850   -1.482900
     26          6           0        1.975510    0.094199   -0.944660
     27          1           0        2.389480    0.270209   -1.943790
     28          1           0        1.874560   -0.982271   -0.799740
     29          6           0        4.035610    0.122948    0.319930
     30          6           0        4.429140   -1.137502   -0.396190
     31          1           0        4.344170   -1.028392   -1.478120
     32          1           0        5.455299   -1.378182   -0.133840
     33          1           0        3.778859   -1.960872   -0.092660
     34          8           0        2.836530    0.664009    0.036470
     35          8           0        4.722480    0.668088    1.138910
 ---------------------------------------------------------------------

 SCF Done:  E(RwB97XD) =  -861.293740603     A.U. after   16 cycles

 The electronic state is 1-A.
 Alpha  occ. eigenvalues --  -19.29757 -19.24254 -19.24024 -19.22982 -14.48104
 Alpha  occ. eigenvalues --  -10.41726 -10.40584 -10.40497 -10.35164 -10.31909
 Alpha  occ. eigenvalues --  -10.31735 -10.31730 -10.31181 -10.30838 -10.29383
 Alpha  occ. eigenvalues --  -10.29208 -10.29162 -10.27799  -1.21172  -1.17813
 Alpha  occ. eigenvalues --   -1.15683  -1.12523  -1.06406  -0.94900  -0.91645
 Alpha  occ. eigenvalues --   -0.89340  -0.85045  -0.83478  -0.80586  -0.77517
 Alpha  occ. eigenvalues --   -0.75874  -0.71484  -0.70185  -0.67501  -0.64681
 Alpha  occ. eigenvalues --   -0.62289  -0.60048  -0.59683  -0.59141  -0.58172
 Alpha  occ. eigenvalues --   -0.58018  -0.55564  -0.55353  -0.53761  -0.53096
 Alpha  occ. eigenvalues --   -0.52981  -0.52009  -0.51316  -0.51245  -0.49642
 Alpha  occ. eigenvalues --   -0.49227  -0.48931  -0.48394  -0.47958  -0.47514
 Alpha  occ. eigenvalues --   -0.47041  -0.44952  -0.44380  -0.43640  -0.43295
 Alpha  occ. eigenvalues --   -0.38823  -0.38092  -0.36132  -0.36020  -0.35430
 Alpha  occ. eigenvalues --   -0.32531  -0.31046
 Alpha virt. eigenvalues --   -0.00803   0.02065   0.04311   0.04725   0.05098
 Alpha virt. eigenvalues --    0.05758   0.06700   0.06936   0.07185   0.07300
 Alpha virt. eigenvalues --    0.07959   0.08082   0.08638   0.09383   0.09446

 Mulliken charges:
               1
     1  C    0.242839
     2  C   -0.189306
     3  C   -0.201693
     4  C    0.257731
     5  H    0.207008
     6  H    0.218861
     7  C   -0.340766
     8  H    0.168363
     9  H    0.165926
    10  H    0.177962
    11  N   -0.004365
    12  O   -0.471477
    13  O   -0.471100
    14  C   -0.141853
    15  H    0.162485
    16  C   -0.095093
    17  H    0.193590
    18  C   -0.014529
    19  H    0.166322
    20  C   -0.453176
    21  H    0.177326
    22  H    0.144044
    23  H    0.158297
    24  C   -0.244453
    25  H    0.185217
    26  C   -0.097004
    27  H    0.168253
    28  H    0.185296
    29  C    0.478564
    30  C   -0.518213
    31  H    0.169999
    32  H    0.179625
    33  H    0.197852
    34  O   -0.324017
    35  O   -0.438514
 Sum of Mulliken charges =   0.00000

 Dipole moment (field-independent basis, Debye):
    X=             -1.6548    Y=              0.0122    Z=             -3.7588  Tot=              4.1069
 Quadrupole moment (field-independent basis, Debye-Ang):
   XX=           -129.5379   YY=           -104.1427   ZZ=           -104.6071
   XY=            -10.5652   XZ=             -9.2871   YZ=              1.7111

  Exact polarizability: 260.285  -9.321 230.722  -5.506  -1.408 154.801
 Approx polarizability: 237.323  -8.410 217.214  -6.487  -2.702 169.397

 ******    1 imaginary frequencies (negative Signs) ******

                      1                      2                      3
                      A                      A                      A
 Frequencies --   -535.4939                27.4341                43.1070
 Red. masses --      7.9515                 5.8595                 3.5110
 Frc consts  --      1.3434                 0.0026                 0.0038
 IR Inten    --     12.1512                 2.1943                 1.3677

                      4                      5                      6
                      A                      A                      A
 Frequencies --     44.3886                59.1744                73.7683
 Red. masses --      3.7082                 1.4533                 4.3837
 Frc consts  --      0.0043                 0.0030                 0.0141
 IR Inten    --      6.9159                 1.5207                 2.2214

                      7                      8                      9
                      A                      A                      A
 Frequencies --     96.2904               122.7487               144.7872
 Red. masses --      2.6257                 9.0245                 5.0699
 Frc consts  --      0.0143                 0.0801                 0.0626
 IR Inten    --      3.1382                 0.2309                 1.5929

                     10                     11                     12
                      A                      A                      A
 Frequencies --    162.9332               171.4368               179.2530
 Red. masses --      5.9360                 9.3050                 3.2465
 Frc consts  --      0.0928                 0.1611                 0.0615
 IR Inten    --      2.0473                 9.5590                 2.2929

                     13                     14                     15
                      A                      A                      A
 Frequencies --    200.8342               209.5222               225.2121
 Red. masses --      3.2081                 1.1711                 1.1199
 Frc consts  --      0.0762                 0.0303                 0.0335
 IR Inten    --      2.8219                 0.2325                 1.1021

                     16                     17                     18
                      A                      A                      A
 Frequencies --    235.8513               270.5103               284.9294
 Red. masses --      3.3102                 2.7460                 3.3282
 Frc consts  --      0.1085                 0.1184                 0.1592
 IR Inten    --      3.1445                 5.1755                 4.4191

                     19                     20                     21
                      A                      A                      A
 Frequencies --    294.7909               327.7342               365.7631
 Red. masses --      3.0106                 2.7647                 2.9897
 Frc consts  --      0.1541                 0.1750                 0.2357
 IR Inten    --      1.2737                 1.9083                 0.3627

                     22                     23                     24
                      A                      A                      A
 Frequencies --    398.4659               440.7858               470.8447
 Red. masses --      8.3537                 4.5495                 3.1951
 Frc consts  --      0.7815                 0.5208                 0.4173
 IR Inten    --     34.8306                11.4363                 3.6922

                     25                     26                     27
                      A                      A                      A
 Frequencies --    496.7436               550.0965               590.1915
 Red. masses --      2.7529                 4.7533                 2.5206
 Frc consts  --      0.4002                 0.8475                 0.5173
 IR Inten    --      1.5500                 7.8077                 5.5057

                     28                     29                     30
                      A                      A                      A
 Frequencies --    609.5872               617.2684               632.7839
 Red. masses --      4.7219                 9.1679                 3.9590
 Frc consts  --      1.0338                 2.0581                 0.9340
 IR Inten    --     20.1284                12.5399                 7.6545

                     31                     32                     33
                      A                      A                      A
 Frequencies --    721.1771               726.8401               741.9406
 Red. masses --      3.9894                 7.6428                 4.8518
 Frc consts  --      1.2225                 2.3789                 1.5736
 IR Inten    --      1.8236                53.1105                 5.1403

                     34                     35                     36
                      A                      A                      A
 Frequencies --    779.4975               798.3936               801.1242
 Red. masses --      2.2479                 2.3585                 4.4873
 Frc consts  --      0.8048                 0.8858                 1.6968
 IR Inten    --      0.7480                14.5311                 9.3232

                     37                     38                     39
                      A                      A                      A
 Frequencies --    840.7526               876.0612               918.9822
 Red. masses --      2.1265                 1.9595                 1.4482
 Frc consts  --      0.8856                 0.8861                 0.7206
 IR Inten    --      8.7357                 7.1095                 2.7067

                     40                     41                     42
                      A                      A                      A
 Frequencies --    941.9247               968.0344               978.8519
 Red. masses --      1.5220                 1.3352                 2.0493
 Frc consts  --      0.7956                 0.7372                 1.1569
 IR Inten    --      7.6282                34.4654                67.6524

                     43                     44                     45
                      A                      A                      A
 Frequencies --    987.0772              1010.7333              1031.7166
 Red. masses --      1.3029                 1.8702                 1.4638
 Frc consts  --      0.7479                 1.1257                 0.9180
 IR Inten    --     78.5499                53.6763                 1.9619

                     46                     47                     48
                      A                      A                      A
 Frequencies --   1039.2603              1044.8523              1068.0824
 Red. masses --      1.4829                 1.3407                 1.5940
 Frc consts  --      0.9437                 0.8624                 1.0714
 IR Inten    --     77.1594                 7.9661                13.1674

                     49                     50                     51
                      A                      A                      A
 Frequencies --   1072.9175              1086.8846              1116.4940
 Red. masses --      1.6813                 1.5018                 1.9763
 Frc consts  --      1.1403                 1.0453                 1.4515
 IR Inten    --     15.8998                17.1317                34.1054

                     52                     53                     54
                      A                      A                      A
 Frequencies --   1135.1907              1154.2466              1155.9720
 Red. masses --      2.3557                 2.8229                 1.3408
 Frc consts  --      1.7885                 2.2159                 1.0556
 IR Inten    --     28.6366                45.5303                 2.7178

                     55                     56                     57
                      A                      A                      A
 Frequencies --   1159.6657              1179.3379              1272.3306
 Red. masses --      3.4785                 1.9497                 1.7232
 Frc consts  --      2.7562                 1.5977                 1.6435
 IR Inten    --     85.4075                16.9801               427.2713

                     58                     59                     60
                      A                      A                      A
 Frequencies --   1281.0813              1288.4971              1298.6149
 Red. masses --      1.5043                 1.4785                 2.9454
 Frc consts  --      1.4546                 1.4462                 2.9265
 IR Inten    --    105.0429                99.5271                17.7943

                     61                     62                     63
                      A                      A                      A
 Frequencies --   1312.2440              1341.8515              1343.3312
 Red. masses --      1.4429                 1.5496                 1.5613
 Frc consts  --      1.4640                 1.6440                 1.6600
 IR Inten    --    145.7731                 6.6643                 6.3794

                     64                     65                     66
                      A                      A                      A
 Frequencies --   1372.7706              1409.8987              1427.8955
 Red. masses --      2.2348                 1.3978                 1.2860
 Frc consts  --      2.4813                 1.6371                 1.5448
 IR Inten    --     20.7448               119.5588                14.9431

                     67                     68                     69
                      A                      A                      A
 Frequencies --   1440.3435              1445.7101              1452.1836
 Red. masses --      1.6296                 1.7322                 2.3936
 Frc consts  --      1.9919                 2.1331                 2.9741
 IR Inten    --     92.6618               117.0559                 4.0027

                     70                     71                     72
                      A                      A                      A
 Frequencies --   1472.2399              1480.8701              1483.6090
 Red. masses --      1.1091                 1.5440                 1.0543
 Frc consts  --      1.4164                 1.9949                 1.3672
 IR Inten    --     31.0389               177.9443                24.6760

                     73                     74                     75
                      A                      A                      A
 Frequencies --   1486.5854              1492.8633              1497.3396
 Red. masses --      1.0708                 1.2428                 1.0791
 Frc consts  --      1.3942                 1.6319                 1.4254
 IR Inten    --     21.2132                87.1382                17.1324

                     76                     77                     78
                      A                      A                      A
 Frequencies --   1506.6173              1510.5316              1617.1162
 Red. masses --      1.1196                 1.0871                 4.1670
 Frc consts  --      1.4973                 1.4614                 6.4204
 IR Inten    --     33.9383                21.4459                27.2147

                     79                     80                     81
                      A                      A                      A
 Frequencies --   1623.1088              1775.9537              1836.5862
 Red. masses --      3.7079                11.9452                11.4498
 Frc consts  --      5.7554                22.1976                22.7547
 IR Inten    --     16.8543              1123.1280               522.1500

                     82                     83                     84
                      A                      A                      A
 Frequencies --   1843.4328              3042.7099              3051.7178
 Red. masses --     11.5554                 1.0660                 1.0396
 Frc consts  --     23.1362                 5.8148                 5.7042
 IR Inten    --    179.1434                22.9034                26.2397

                     85                     86                     87
                      A                      A                      A
 Frequencies --   3073.1566              3074.5014              3118.2099
 Red. masses --      1.0351                 1.0385                 1.0967
 Frc consts  --      5.7599                 5.7834                 6.2825
 IR Inten    --     43.9448                 0.9876                 9.6854

                     88                     89                     90
                      A                      A                      A
 Frequencies --   3122.6642              3143.0909              3145.2237
 Red. masses --      1.0967                 1.1047                 1.1001
 Frc consts  --      6.3007                 6.4297                 6.4116
 IR Inten    --      1.0638                14.2743                 2.5642

                     91                     92                     93
                      A                      A                      A
 Frequencies --   3146.2288              3174.5944              3180.1154
 Red. masses --      1.1022                 1.0908                 1.1034
 Frc consts  --      6.4280                 6.4772                 6.5747
 IR Inten    --      4.9855                 1.8674                 1.3457

                     94                     95                     96
                      A                      A                      A
 Frequencies --   3182.5219              3187.0156              3190.9471
 Red. masses --      1.0867                 1.0887                 1.1028
 Frc consts  --      6.4849                 6.5152                 6.6156
 IR Inten    --     22.4667                 6.8476                 6.6980

                     97                     98                     99
                      A                      A                      A
 Frequencies --   3209.5030              3270.7968              3286.3476
 Red. masses --      1.0911                 1.0912                 1.0991
 Frc consts  --      6.6217                 6.8779                 6.9941
 IR Inten    --      3.8808                 0.1974                 1.0459

 - Thermochemistry -
 -------------------
 Temperature   298.150 Kelvin.  Pressure   1.00000 Atm.
 Atom     1 has atomic number  6 and mass  12.00000

 Molecular mass:   251.11576 amu.
 Principal axes and moments of inertia in atomic units:
                           1         2         3
     Eigenvalues --  2700.614216792.693778703.59263
           X            0.99968  -0.02495  -0.00376
           Y            0.02501   0.99956   0.01614
           Z            0.00335  -0.01623   0.99986
 This molecule is an asymmetric top.
 Rotational symmetry number  1.
 Warning -- assumption of classical behavior for rotation
           may cause significant error
 Rotational temperatures (Kelvin)      0.03207     0.01275     0.00995
 Rotational constants (GHZ):           0.66827     0.26569     0.20736
    1 imaginary frequencies ignored.
 Zero-point vibrational energy     751232.1 (Joules/Mol)
                                  179.54878 (Kcal/Mol)
 Warning -- explicit consideration of  28 degrees of freedom as
           vibrations may cause significant error
 Vibrational temperatures:     39.47    62.02    63.87    85.14   106.14
          (Kelvin)            138.54   176.61   208.32   234.42   246.66
                              257.90   288.96   301.46   324.03   339.34
                              389.20   409.95   424.14   471.54   526.25
                              573.30   634.19   677.44   714.70   791.47
                              849.15   877.06   888.11   910.43  1037.61
                             1045.76  1067.49  1121.52  1148.71  1152.64
                             1209.65  1260.46  1322.21  1355.22  1392.78
                             1408.35  1420.18  1454.22  1484.41  1495.26
                             1503.31  1536.73  1543.69  1563.78  1606.38
                             1633.28  1660.70  1663.18  1668.50  1696.80
                             1830.60  1843.19  1853.86  1868.41  1888.02
                             1930.62  1932.75  1975.11  2028.53  2054.42
                             2072.33  2080.05  2089.37  2118.22  2130.64
                             2134.58  2138.86  2147.89  2154.34  2167.68
                             2173.32  2326.67  2335.29  2555.20  2642.43
                             2652.29  4377.78  4390.74  4421.58  4423.52
                             4486.40  4492.81  4522.20  4525.27  4526.72
                             4567.53  4575.47  4578.93  4585.40  4591.06
                             4617.75  4705.94  4728.32

 Zero-point correction=                           0.286129 (Hartree/Particle)
 Thermal correction to Energy=                    0.304492
 Thermal correction to Enthalpy=                  0.305436
 Thermal correction to Gibbs Free Energy=         0.238404
 Sum of electronic and zero-point Energies=           -861.007611
 Sum of electronic and thermal Energies=              -860.989249
 Sum of electronic and thermal Enthalpies=            -860.988305
 Sum of electronic and thermal Free Energies=         -861.055336

                     E (Thermal)             CV                S
                      KCal/Mol        Cal/Mol-Kelvin    Cal/Mol-Kelvin
 Total                  191.071             67.056            141.080
 Electronic               0.000              0.000              0.000
 Translational            0.889              2.981             42.463
 Rotational               0.889              2.981             33.434
 Vibrational            189.294             61.095             65.183
 Vibration     1          0.593              1.984              6.007
 Vibration     2          0.595              1.980              5.111
 Vibration     3          0.595              1.980              5.053
 Vibration     4          0.597              1.974              4.485
 Vibration     5          0.599              1.966              4.050
 Vibration     6          0.603              1.952              3.528
 Vibration     7          0.610              1.930              3.057
 Vibration     8          0.616              1.908              2.740
 Vibration     9          0.623              1.888              2.515
 Vibration    10          0.626              1.878              2.420
 Vibration    11          0.629              1.868              2.336
 Vibration    12          0.638              1.839              2.125
 Vibration    13          0.642              1.826              2.048
 Vibration    14          0.650              1.803              1.917
 Vibration    15          0.655              1.786              1.834
 Vibration    16          0.674              1.728              1.593
 Vibration    17          0.683              1.702              1.504
 Vibration    18          0.689              1.683              1.446
 Vibration    19          0.711              1.620              1.271
 Vibration    20          0.739              1.543              1.098
 Vibration    21          0.765              1.473              0.968
 Vibration    22          0.801              1.381              0.824
 Vibration    23          0.828              1.315              0.735
 Vibration    24          0.852              1.257              0.666
 Vibration    25          0.905              1.139              0.544
 Vibration    26          0.948              1.053              0.467
 Vibration    27          0.969              1.012              0.433
 Vibration    28          0.977              0.995              0.421

 Normal termination of Gaussian 09 at Fri Feb 11 20:06:28 2022.
