 Gaussian 09, Revision D.01,
 Gaussian 09:  ES64L-G09RevD.01 24-Apr-2013

 -------------------------------------------------------------------
 #n wB97XD/Gen scrf(smd,solvent=toluene) opt=(calcfc,ts,noeigentest)
 -------------------------------------------------------------------

 ----------------------------
 ts diels alder toluene - opt
 ----------------------------
 Symbolic Z-matrix:
 Charge =  0 Multiplicity = 1

 SCF Done:  E(RwB97XD) =  -861.293144958     A.U. after   16 cycles

  Exact polarizability:   0.000   0.000   0.000   0.000   0.000   0.000
 Approx polarizability: 238.409  -8.729 216.240  -6.654  -2.635 171.755

 SCF Done:  E(RwB97XD) =  -861.293642759     A.U. after   15 cycles
 SCF Done:  E(RwB97XD) =  -861.292907448     A.U. after   14 cycles
 SCF Done:  E(RwB97XD) =  -861.293466625     A.U. after   14 cycles
 SCF Done:  E(RwB97XD) =  -861.293552360     A.U. after   14 cycles
 SCF Done:  E(RwB97XD) =  -861.293474770     A.U. after   13 cycles
 SCF Done:  E(RwB97XD) =  -861.293706041     A.U. after   13 cycles
 SCF Done:  E(RwB97XD) =  -861.293687620     A.U. after   13 cycles
 SCF Done:  E(RwB97XD) =  -861.293723135     A.U. after   13 cycles
 SCF Done:  E(RwB97XD) =  -861.293727265     A.U. after   11 cycles
 SCF Done:  E(RwB97XD) =  -861.293608224     A.U. after   13 cycles
 SCF Done:  E(RwB97XD) =  -861.293707078     A.U. after   12 cycles
 SCF Done:  E(RwB97XD) =  -861.293659052     A.U. after   14 cycles
 SCF Done:  E(RwB97XD) =  -861.293737575     A.U. after   13 cycles
 SCF Done:  E(RwB97XD) =  -861.293739144     A.U. after   12 cycles
 SCF Done:  E(RwB97XD) =  -861.293739978     A.U. after   10 cycles
 SCF Done:  E(RwB97XD) =  -861.293740538     A.U. after   10 cycles
 SCF Done:  E(RwB97XD) =  -861.293740591     A.U. after    9 cycles
 SCF Done:  E(RwB97XD) =  -861.293740619     A.U. after    8 cycles
 SCF Done:  E(RwB97XD) =  -861.293740604     A.U. after    8 cycles
 Optimization completed.
    -- Stationary point found.

                         Standard orientation:
 ---------------------------------------------------------------------
 Center     Atomic      Atomic             Coordinates (Angstroms)
 Number     Number       Type             X           Y           Z
 ---------------------------------------------------------------------
      1          6           0       -2.634532   -0.656289    0.558828
      2          6           0       -1.630882    0.303220    1.082732
      3          6           0       -0.376566   -0.251160    0.889023
      4          6           0       -0.570324   -1.575323    0.239512
      5          1           0       -1.906857    0.999304    1.856875
      6          1           0        0.492051   -0.076674    1.502945
      7          6           0       -2.515503   -2.843163   -0.672960
      8          1           0       -2.033659   -3.035397   -1.630938
      9          1           0       -2.415681   -3.729731   -0.045135
     10          1           0       -3.571361   -2.635773   -0.832326
     11          7           0       -1.920540   -1.692201   -0.040244
     12          8           0        0.255884   -2.421776   -0.016202
     13          8           0       -3.838950   -0.603742    0.620645
     14          6           0       -0.814071    2.611698   -0.297142
     15          1           0       -0.867021    3.586113    0.178496
     16          6           0        0.447343    2.045380   -0.470909
     17          1           0        1.307185    2.597506   -0.110187
     18          6           0       -1.991396    1.922339   -0.487947
     19          1           0       -1.999023    1.099501   -1.195072
     20          6           0       -3.326190    2.525883   -0.198667
     21          1           0       -4.032310    1.769984    0.147719
     22          1           0       -3.256696    3.313802    0.552581
     23          1           0       -3.744359    2.960512   -1.111697
     24          6           0        0.627190    0.731985   -0.844727
     25          1           0       -0.110361    0.257851   -1.482895
     26          6           0        1.975513    0.094201   -0.944658
     27          1           0        2.389475    0.270209   -1.943792
     28          1           0        1.874563   -0.982268   -0.799742
     29          6           0        4.035605    0.122947    0.319927
     30          6           0        4.429140   -1.137500   -0.396194
     31          1           0        4.344167   -1.028393   -1.478116
     32          1           0        5.455298   -1.378179   -0.133845
     33          1           0        3.778859   -1.960873   -0.092660
     34          8           0        2.836528    0.664006    0.036468
     35          8           0        4.722481    0.668086    1.138912
 ---------------------------------------------------------------------

 The electronic state is 1-A.
 Alpha  occ. eigenvalues --  -19.29757 -19.24254 -19.24025 -19.22982 -14.48104
 Alpha  occ. eigenvalues --  -10.41726 -10.40584 -10.40497 -10.35164 -10.31909
 Alpha  occ. eigenvalues --  -10.31735 -10.31730 -10.31181 -10.30838 -10.29383
 Alpha  occ. eigenvalues --  -10.29208 -10.29162 -10.27799  -1.21172  -1.17813
 Alpha  occ. eigenvalues --   -1.15683  -1.12523  -1.06406  -0.94900  -0.91645
 Alpha  occ. eigenvalues --   -0.89340  -0.85045  -0.83478  -0.80586  -0.77517
 Alpha  occ. eigenvalues --   -0.75874  -0.71484  -0.70185  -0.67501  -0.64681
 Alpha  occ. eigenvalues --   -0.62289  -0.60048  -0.59683  -0.59141  -0.58172
 Alpha  occ. eigenvalues --   -0.58018  -0.55564  -0.55353  -0.53761  -0.53096
 Alpha  occ. eigenvalues --   -0.52981  -0.52009  -0.51316  -0.51245  -0.49642
 Alpha  occ. eigenvalues --   -0.49227  -0.48931  -0.48394  -0.47958  -0.47514
 Alpha  occ. eigenvalues --   -0.47041  -0.44952  -0.44380  -0.43640  -0.43295
 Alpha  occ. eigenvalues --   -0.38823  -0.38092  -0.36132  -0.36020  -0.35430
 Alpha  occ. eigenvalues --   -0.32531  -0.31046
 Alpha virt. eigenvalues --   -0.00803   0.02065   0.04311   0.04725   0.05098
 Alpha virt. eigenvalues --    0.05758   0.06700   0.06936   0.07185   0.07300
 Alpha virt. eigenvalues --    0.07959   0.08082   0.08638   0.09383   0.09446

 Mulliken charges:
               1
     1  C    0.242832
     2  C   -0.189294
     3  C   -0.201704
     4  C    0.257738
     5  H    0.207009
     6  H    0.218861
     7  C   -0.340764
     8  H    0.168363
     9  H    0.165926
    10  H    0.177962
    11  N   -0.004368
    12  O   -0.471478
    13  O   -0.471098
    14  C   -0.141853
    15  H    0.162484
    16  C   -0.095090
    17  H    0.193590
    18  C   -0.014541
    19  H    0.166323
    20  C   -0.453175
    21  H    0.177325
    22  H    0.144044
    23  H    0.158296
    24  C   -0.244455
    25  H    0.185216
    26  C   -0.096993
    27  H    0.168253
    28  H    0.185296
    29  C    0.478565
    30  C   -0.518211
    31  H    0.169999
    32  H    0.179625
    33  H    0.197852
    34  O   -0.324013
    35  O   -0.438522
 Sum of Mulliken charges =   0.00000

 Dipole moment (field-independent basis, Debye):
    X=             -1.6549    Y=              0.0122    Z=             -3.7588  Tot=              4.1070
 Quadrupole moment (field-independent basis, Debye-Ang):
   XX=           -129.5381   YY=           -104.1427   ZZ=           -104.6072
   XY=            -10.5650   XZ=             -9.2873   YZ=              1.7110

 Normal termination of Gaussian 09 at Thu Feb 10 17:48:37 2022.
