 Gaussian 09, Revision D.01,
 Gaussian 09:  ES64L-G09RevD.01 24-Apr-2013

 ------------------------------------------------
 #n wB97XD/Def2TZVP scrf(smd,solvent=toluene) opt
 ------------------------------------------------

 -------------------------------------
 dieneophile diels-alder toluene - opt
 -------------------------------------
 Symbolic Z-matrix:
 Charge =  0 Multiplicity = 1

 SCF Done:  E(RwB97XD) =  -398.780912976     A.U. after   13 cycles
 SCF Done:  E(RwB97XD) =  -398.780912896     A.U. after    8 cycles
 SCF Done:  E(RwB97XD) =  -398.780912575     A.U. after    8 cycles
 Optimization completed.
    -- Stationary point found.

                         Standard orientation:
 ---------------------------------------------------------------------
 Center     Atomic      Atomic             Coordinates (Angstroms)
 Number     Number       Type             X           Y           Z
 ---------------------------------------------------------------------
      1          6           0       -1.132259   -0.220723   -0.000197
      2          6           0       -0.631362   -1.633128    0.000110
      3          6           0        0.692571   -1.608271    0.000224
      4          6           0        1.143096   -0.178835   -0.000612
      5          1           0       -1.301435   -2.479186    0.000155
      6          1           0        1.393892   -2.428583    0.000535
      7          6           0       -0.048493    2.032041    0.000607
      8          1           0        0.972183    2.396605   -0.094457
      9          1           0       -0.642583    2.395574   -0.837442
     10          1           0       -0.479401    2.405707    0.929987
     11          7           0       -0.010156    0.589909   -0.002603
     12          8           0        2.270122    0.240125    0.000713
     13          8           0       -2.271732    0.164126    0.001619
 ---------------------------------------------------------------------

 The electronic state is 1-A.
 Alpha  occ. eigenvalues --  -19.25163 -19.25117 -14.48564 -10.41433 -10.41305
 Alpha  occ. eigenvalues --  -10.32319 -10.32220 -10.31992  -1.18718  -1.16710
 Alpha  occ. eigenvalues --   -1.07344  -0.93830  -0.81534  -0.77566  -0.70793
 Alpha  occ. eigenvalues --   -0.65792  -0.59474  -0.58803  -0.56123  -0.54291
 Alpha  occ. eigenvalues --   -0.53764  -0.51495  -0.50561  -0.49550  -0.48662
 Alpha  occ. eigenvalues --   -0.39055  -0.38961  -0.35961  -0.35904
 Alpha virt. eigenvalues --   -0.02619   0.12480   0.12764   0.13667   0.14779
 Alpha virt. eigenvalues --    0.16861   0.17599   0.19815   0.21006   0.21354
 Alpha virt. eigenvalues --    0.22373   0.23003   0.24776   0.27350   0.29412

 Mulliken charges:
               1
     1  C    0.299837
     2  C   -0.180027
     3  C   -0.161776
     4  C    0.286716
     5  H    0.183446
     6  H    0.184284
     7  C   -0.285867
     8  H    0.163487
     9  H    0.151604
    10  H    0.149795
    11  N   -0.089435
    12  O   -0.352684
    13  O   -0.349379
 Sum of Mulliken charges =   0.00000

 Dipole moment (field-independent basis, Debye):
    X=              0.0583    Y=             -1.3692    Z=             -0.0108  Tot=              1.3705
 Quadrupole moment (field-independent basis, Debye-Ang):
   XX=            -60.5050   YY=            -35.3183   ZZ=            -44.9287
   XY=             -0.3221   XZ=              0.0063   YZ=             -0.0262

 1\1\GINC-D10S7B1\FOpt\RwB97XD\def2TZVP\C5H5N1O2\PMMASS\23-Feb-2022\0\\
 #n wB97XD/Def2TZVP scrf(smd,solvent=toluene) opt\\dieneophile diels-al
 der toluene - opt\\0,1\C,-1.1322213247,-0.2215302476,-0.0002886239\C,-
 0.6301601354,-1.6335217213,0.0000182868\C,0.6937520881,-1.6075729924,0
 .0001322254\C,1.143098181,-0.1777653342,-0.0007037766\H,-1.2995354112,
 -2.4801315533,0.0000639531\H,1.3957495529,-2.4273066482,0.0004438411\C
 ,-0.0503127673,2.0321272033,0.0005150558\H,0.9700616485,2.3975327198,-
 0.0945480252\H,-0.6447031461,2.3951703915,-0.837533839\H,-0.4815291434

 Normal termination of Gaussian 09 at Wed Feb 23 16:56:41 2022.
