 Gaussian 09, Revision D.01,
 Gaussian 09:  ES64L-G09RevD.01 24-Apr-2013

 -------------------------------------------------
 #n wB97XD/Def2TZVP scrf(smd,solvent=toluene) freq
 -------------------------------------------------

 --------------------------------
 diene diels-alder toluene - freq
 --------------------------------
 Symbolic Z-matrix:
 Charge =  0 Multiplicity = 1

                         Standard orientation:
 ---------------------------------------------------------------------
 Center     Atomic      Atomic             Coordinates (Angstroms)
 Number     Number       Type             X           Y           Z
 ---------------------------------------------------------------------
      1          6           0       -2.600690    0.617740   -0.293111
      2          1           0       -2.942020    1.493791   -0.839911
      3          6           0       -1.148140    0.434180   -0.224551
      4          1           0       -0.548360    1.338000   -0.193301
      5          6           0       -3.507201   -0.168779    0.281369
      6          1           0       -3.166341   -1.011019    0.879299
      7          6           0       -4.984101    0.021951    0.189909
      8          1           0       -5.426700    0.142782    1.182769
      9          1           0       -5.241230    0.897091   -0.408931
     10          1           0       -5.461981   -0.852598   -0.261221
     11          6           0       -0.528891   -0.741010   -0.219321
     12          1           0       -1.099731   -1.661520   -0.304541
     13          6           0        0.944019   -0.953091   -0.116821
     14          1           0        1.299119   -1.492691   -1.001071
     15          1           0        1.159929   -1.574861    0.759009
     16          6           0        2.947370    0.382958    0.088569
     17          6           0        3.741629   -0.893392    0.059039
     18          1           0        3.593949   -1.418102   -0.886711
     19          1           0        4.794149   -0.650273    0.172289
     20          1           0        3.438609   -1.566072    0.862939
     21          8           0        1.609440    0.297949   -0.005361
     22          8           0        3.442640    1.471068    0.186469
 ---------------------------------------------------------------------

 SCF Done:  E(RwB97XD) =  -462.530038821     A.U. after   13 cycles

 The electronic state is 1-A.
 Alpha  occ. eigenvalues --  -19.29395 -19.22640 -10.41490 -10.35110 -10.29289
 Alpha  occ. eigenvalues --  -10.28831 -10.28425 -10.28363 -10.27937 -10.27391
 Alpha  occ. eigenvalues --   -1.20912  -1.12267  -0.92034  -0.88159  -0.84944
 Alpha  occ. eigenvalues --   -0.82254  -0.75907  -0.69771  -0.66401  -0.61347
 Alpha  occ. eigenvalues --   -0.59375  -0.59148  -0.57617  -0.54846  -0.52452
 Alpha  occ. eigenvalues --   -0.52248  -0.49907  -0.49514  -0.48999  -0.47315
 Alpha  occ. eigenvalues --   -0.47180  -0.43826  -0.43366  -0.42347  -0.39124
 Alpha  occ. eigenvalues --   -0.37654  -0.35855  -0.30328
 Alpha virt. eigenvalues --    0.04661   0.08580   0.10726   0.13000   0.13398
 Alpha virt. eigenvalues --    0.14312   0.16059   0.16570   0.16691   0.17985
 Alpha virt. eigenvalues --    0.19141   0.19603   0.20249   0.21496   0.21779

 Mulliken charges:
               1
     1  C   -0.193176
     2  H    0.133239
     3  C   -0.121111
     4  H    0.156618
     5  C   -0.122556
     6  H    0.132568
     7  C   -0.335862
     8  H    0.131040
     9  H    0.123911
    10  H    0.127982
    11  C   -0.227368
    12  H    0.145650
    13  C    0.002379
    14  H    0.125891
    15  H    0.126339
    16  C    0.311225
    17  C   -0.384367
    18  H    0.151795
    19  H    0.161334
    20  H    0.146568
    21  O   -0.233070
    22  O   -0.359031
 Sum of Mulliken charges =   0.00000

 Dipole moment (field-independent basis, Debye):
    X=             -1.5552    Y=             -4.9025    Z=             -0.2606  Tot=              5.1498
 Quadrupole moment (field-independent basis, Debye-Ang):
   XX=            -58.8562   YY=            -61.2975   ZZ=            -60.9342
   XY=            -13.4839   XZ=             -1.4549   YZ=             -1.8359

  Exact polarizability: 165.968  -1.354 114.528  -5.201  -3.841  82.758
 Approx polarizability: 124.684   2.647 115.842  -4.366  -3.721  86.037

                      1                      2                      3
                      A                      A                      A
 Frequencies --     36.8419                55.9706                87.2579
 Red. masses --      3.1847                 2.9088                 3.6326
 Frc consts  --      0.0025                 0.0054                 0.0163
 IR Inten    --      0.8820                 1.1706                 2.0383

                      4                      5                      6
                      A                      A                      A
 Frequencies --    129.3686               137.9982               162.8265
 Red. masses --      5.2991                 1.6704                 4.3538
 Frc consts  --      0.0523                 0.0187                 0.0680
 IR Inten    --      0.0745                 4.8705                 1.0388

                      7                      8                      9
                      A                      A                      A
 Frequencies --    173.9095               209.5998               228.4528
 Red. masses --      1.2790                 1.3120                 1.4380
 Frc consts  --      0.0228                 0.0340                 0.0442
 IR Inten    --      0.8963                 4.6179                 0.3957

                     10                     11                     12
                      A                      A                      A
 Frequencies --    255.5690               342.4426               373.6065
 Red. masses --      3.8819                 2.6251                 3.0783
 Frc consts  --      0.1494                 0.1814                 0.2532
 IR Inten    --      0.7412                 1.0789                 4.1738

                     13                     14                     15
                      A                      A                      A
 Frequencies --    469.7684               536.9730               598.1982
 Red. masses --      3.7305                 4.1919                 2.5714
 Frc consts  --      0.4851                 0.7121                 0.5421
 IR Inten    --      4.1197                 7.6630                 6.7251

                     16                     17                     18
                      A                      A                      A
 Frequencies --    603.8720               711.2667               790.1115
 Red. masses --      4.6193                 2.7969                 1.7483
 Frc consts  --      0.9925                 0.8337                 0.6430
 IR Inten    --     11.2221                 8.9533                 2.4635

                     19                     20                     21
                      A                      A                      A
 Frequencies --    848.8776               866.9754               931.6373
 Red. masses --      2.3807                 2.4805                 1.7370
 Frc consts  --      1.0108                 1.0985                 0.8883
 IR Inten    --      3.3053                 0.4311                 9.4046

                     22                     23                     24
                      A                      A                      A
 Frequencies --    998.1932              1005.4234              1018.0323
 Red. masses --      1.4858                 1.5403                 1.1236
 Frc consts  --      0.8722                 0.9174                 0.6861
 IR Inten    --     24.3350                26.6695                80.0440

                     25                     26                     27
                      A                      A                      A
 Frequencies --   1037.5991              1044.5610              1074.4892
 Red. masses --      1.6259                 1.7992                 1.8268
 Frc consts  --      1.0313                 1.1566                 1.2426
 IR Inten    --     46.4172                 3.7409                11.1656

                     28                     29                     30
                      A                      A                      A
 Frequencies --   1083.1820              1098.0689              1137.4668
 Red. masses --      1.5638                 1.8671                 2.7708
 Frc consts  --      1.0810                 1.3264                 2.1122
 IR Inten    --      1.0456                 4.4389                12.0110

                     31                     32                     33
                      A                      A                      A
 Frequencies --   1154.4832              1285.4900              1291.2746
 Red. masses --      3.9401                 1.0977                 2.7567
 Frc consts  --      3.0941                 1.0688                 2.7081
 IR Inten    --     75.6107                26.2302               513.6931

                     34                     35                     36
                      A                      A                      A
 Frequencies --   1313.6829              1324.2717              1343.0084
 Red. masses --      1.6723                 1.2845                 1.3268
 Frc consts  --      1.7004                 1.3272                 1.4100
 IR Inten    --    110.3317                10.0022                 8.3613

                     37                     38                     39
                      A                      A                      A
 Frequencies --   1355.4070              1418.6484              1423.5083
 Red. masses --      1.3431                 1.4132                 1.3384
 Frc consts  --      1.4537                 1.6757                 1.5979
 IR Inten    --      6.7941               115.0847                 7.0940

                     40                     41                     42
                      A                      A                      A
 Frequencies --   1426.3073              1471.0617              1471.7225
 Red. masses --      1.3025                 1.0799                 1.0424
 Frc consts  --      1.5612                 1.3768                 1.3303
 IR Inten    --     10.3386                31.8824                11.3881

                     43                     44                     45
                      A                      A                      A
 Frequencies --   1487.7208              1491.4792              1491.7693
 Red. masses --      1.0556                 1.0608                 1.0622
 Frc consts  --      1.3765                 1.3904                 1.3927
 IR Inten    --     12.2375                17.4486                 7.6438

                     46                     47                     48
                      A                      A                      A
 Frequencies --   1745.5696              1755.8565              1843.2819
 Red. masses --      6.3969                 5.7722                11.4653
 Frc consts  --     11.4840                10.4851                22.9520
 IR Inten    --     11.0194                 0.7910               494.0779

                     49                     50                     51
                      A                      A                      A
 Frequencies --   3034.6086              3042.2475              3074.3089
 Red. masses --      1.0566                 1.0368                 1.1056
 Frc consts  --      5.7328                 5.6539                 6.1567
 IR Inten    --     34.8290                36.3559                18.4532

                     52                     53                     54
                      A                      A                      A
 Frequencies --   3080.2800              3098.9095              3127.1617
 Red. masses --      1.0388                 1.0997                 1.1011
 Frc consts  --      5.8074                 6.2222                 6.3440
 IR Inten    --      1.7962                18.9984                14.0857

                     55                     56                     57
                      A                      A                      A
 Frequencies --   3149.0029              3153.0953              3159.0944
 Red. masses --      1.1000                 1.0918                 1.0870
 Frc consts  --      6.4270                 6.3952                 6.3916
 IR Inten    --      3.9960                 3.5366                45.5402

                     58                     59                     60
                      A                      A                      A
 Frequencies --   3175.9166              3185.9114              3195.0146
 Red. masses --      1.0907                 1.0882                 1.1025
 Frc consts  --      6.4820                 6.5077                 6.6308
 IR Inten    --      7.2433                 6.8900                 6.4817

 - Thermochemistry -
 -------------------
 Temperature   298.150 Kelvin.  Pressure   1.00000 Atm.
 Atom     1 has atomic number  6 and mass  12.00000

 Molecular mass:   140.08373 amu.
 Principal axes and moments of inertia in atomic units:
                           1         2         3
     Eigenvalues --   362.350014390.230744675.14735
           X            0.99987  -0.01573  -0.00172
           Y            0.01569   0.99964  -0.02168
           Z            0.00206   0.02165   0.99976
 This molecule is an asymmetric top.
 Rotational symmetry number  1.
 Rotational temperatures (Kelvin)      0.23903     0.01973     0.01853
 Rotational constants (GHZ):           4.98066     0.41108     0.38603
 Zero-point vibrational energy     488187.8 (Joules/Mol)
                                  116.67969 (Kcal/Mol)
 Warning -- explicit consideration of  16 degrees of freedom as
           vibrations may cause significant error
 Vibrational temperatures:     53.01    80.53   125.54   186.13   198.55
          (Kelvin)            234.27   250.22   301.57   328.69   367.71
                              492.70   537.54   675.89   772.58   860.67
                              868.84  1023.35  1136.79  1221.34  1247.38
                             1340.42  1436.18  1446.58  1464.72  1492.87
                             1502.89  1545.95  1558.46  1579.87  1636.56
                             1661.04  1849.53  1857.85  1890.09  1905.33
                             1932.29  1950.13  2041.12  2048.11  2052.14
                             2116.53  2117.48  2140.50  2145.90  2146.32
                             2511.48  2526.28  2652.07  4366.12  4377.11
                             4423.24  4431.83  4458.63  4499.28  4530.71
                             4536.60  4545.23  4569.43  4583.81  4596.91

 Zero-point correction=                           0.185941 (Hartree/Particle)
 Thermal correction to Energy=                    0.197568
 Thermal correction to Enthalpy=                  0.198512
 Thermal correction to Gibbs Free Energy=         0.147380
 Sum of electronic and zero-point Energies=           -462.344098
 Sum of electronic and thermal Energies=              -462.332471
 Sum of electronic and thermal Enthalpies=            -462.331527
 Sum of electronic and thermal Free Energies=         -462.382659

                     E (Thermal)             CV                S
                      KCal/Mol        Cal/Mol-Kelvin    Cal/Mol-Kelvin
 Total                  123.976             40.325            107.616
 Electronic               0.000              0.000              0.000
 Translational            0.889              2.981             40.723
 Rotational               0.889              2.981             30.387
 Vibrational            122.198             34.364             36.506
 Vibration     1          0.594              1.982              5.422
 Vibration     2          0.596              1.975              4.594
 Vibration     3          0.601              1.958              3.721
 Vibration     4          0.612              1.924              2.955
 Vibration     5          0.614              1.915              2.831
 Vibration     6          0.623              1.888              2.517
 Vibration     7          0.627              1.875              2.393
 Vibration     8          0.642              1.826              2.047
 Vibration     9          0.651              1.798              1.891
 Vibration    10          0.666              1.753              1.692
 Vibration    11          0.722              1.591              1.201
 Vibration    12          0.745              1.526              1.065
 Vibration    13          0.827              1.317              0.738
 Vibration    14          0.892              1.168              0.572
 Vibration    15          0.956              1.036              0.453
 Vibration    16          0.962              1.024              0.443

 Normal termination of Gaussian 09 at Thu Feb 24 23:34:48 2022.
