 Gaussian 09, Revision D.01,
 Gaussian 09:  ES64L-G09RevD.01 24-Apr-2013

 ------------------------------------------------
 #n wB97XD/Def2TZVP scrf(smd,solvent=toluene) opt
 ------------------------------------------------

 -------------------------------
 diene diels-alder toluene - opt
 -------------------------------
 Symbolic Z-matrix:
 Charge =  0 Multiplicity = 1

 SCF Done:  E(RwB97XD) =  -462.530037881     A.U. after   13 cycles
 SCF Done:  E(RwB97XD) =  -462.530038539     A.U. after    8 cycles
 SCF Done:  E(RwB97XD) =  -462.530038739     A.U. after    8 cycles
 SCF Done:  E(RwB97XD) =  -462.530038704     A.U. after    7 cycles
 SCF Done:  E(RwB97XD) =  -462.530038822     A.U. after    6 cycles
 Optimization completed.
    -- Stationary point found.

                         Standard orientation:
 ---------------------------------------------------------------------
 Center     Atomic      Atomic             Coordinates (Angstroms)
 Number     Number       Type             X           Y           Z
 ---------------------------------------------------------------------
      1          6           0       -2.600686    0.617739   -0.293108
      2          1           0       -2.942022    1.493786   -0.839907
      3          6           0       -1.148143    0.434181   -0.224552
      4          1           0       -0.548364    1.338000   -0.193296
      5          6           0       -3.507197   -0.168775    0.281372
      6          1           0       -3.166336   -1.011024    0.879300
      7          6           0       -4.984103    0.021953    0.189908
      8          1           0       -5.426703    0.142776    1.182770
      9          1           0       -5.241232    0.897085   -0.408935
     10          1           0       -5.461980   -0.852603   -0.261223
     11          6           0       -0.528888   -0.741013   -0.219320
     12          1           0       -1.099735   -1.661525   -0.304542
     13          6           0        0.944018   -0.953090   -0.116816
     14          1           0        1.299115   -1.492694   -1.001067
     15          1           0        1.159931   -1.574857    0.759012
     16          6           0        2.947365    0.382959    0.088568
     17          6           0        3.741627   -0.893394    0.059039
     18          1           0        3.593946   -1.418098   -0.886712
     19          1           0        4.794152   -0.650270    0.172289
     20          1           0        3.438611   -1.566066    0.862936
     21          8           0        1.609443    0.297948   -0.005363
     22          8           0        3.442639    1.471067    0.186466
 ---------------------------------------------------------------------

 The electronic state is 1-A.
 Alpha  occ. eigenvalues --  -19.29395 -19.22640 -10.41490 -10.35110 -10.29289
 Alpha  occ. eigenvalues --  -10.28831 -10.28425 -10.28363 -10.27937 -10.27391
 Alpha  occ. eigenvalues --   -1.20912  -1.12267  -0.92034  -0.88159  -0.84944
 Alpha  occ. eigenvalues --   -0.82254  -0.75907  -0.69771  -0.66401  -0.61347
 Alpha  occ. eigenvalues --   -0.59375  -0.59148  -0.57617  -0.54846  -0.52452
 Alpha  occ. eigenvalues --   -0.52248  -0.49907  -0.49514  -0.48999  -0.47315
 Alpha  occ. eigenvalues --   -0.47180  -0.43826  -0.43366  -0.42347  -0.39124
 Alpha  occ. eigenvalues --   -0.37654  -0.35855  -0.30328
 Alpha virt. eigenvalues --    0.04661   0.08580   0.10727   0.13000   0.13398
 Alpha virt. eigenvalues --    0.14312   0.16059   0.16570   0.16691   0.17985
 Alpha virt. eigenvalues --    0.19141   0.19603   0.20249   0.21496   0.21779

 Mulliken charges:
               1
     1  C   -0.193175
     2  H    0.133238
     3  C   -0.121110
     4  H    0.156619
     5  C   -0.122557
     6  H    0.132567
     7  C   -0.335861
     8  H    0.131040
     9  H    0.123912
    10  H    0.127982
    11  C   -0.227370
    12  H    0.145651
    13  C    0.002380
    14  H    0.125891
    15  H    0.126341
    16  C    0.311225
    17  C   -0.384367
    18  H    0.151794
    19  H    0.161333
    20  H    0.146568
    21  O   -0.233067
    22  O   -0.359033
 Sum of Mulliken charges =   0.00000

 Dipole moment (field-independent basis, Debye):
    X=             -1.5553    Y=             -4.9025    Z=             -0.2606  Tot=              5.1499
 Quadrupole moment (field-independent basis, Debye-Ang):
   XX=            -58.8564   YY=            -61.2975   ZZ=            -60.9342
   XY=            -13.4839   XZ=             -1.4548   YZ=             -1.8359

 Normal termination of Gaussian 09 at Wed Feb 23 17:03:10 2022.
