 Gaussian 09, Revision D.01,
 Gaussian 09:  ES64L-G09RevD.01 24-Apr-2013

 -------------------------------------------------
 #n wB97XD/Def2TZVP scrf(smd,solvent=toluene) freq
 -------------------------------------------------

 --------------------------------------
 dieneophile diels-alder toluene - freq
 --------------------------------------
 Symbolic Z-matrix:
 Charge =  0 Multiplicity = 1

                         Standard orientation:
 ---------------------------------------------------------------------
 Center     Atomic      Atomic             Coordinates (Angstroms)
 Number     Number       Type             X           Y           Z
 ---------------------------------------------------------------------
      1          6           0       -1.132261   -0.220719   -0.000200
      2          6           0       -0.631364   -1.633130    0.000110
      3          6           0        0.692566   -1.608274    0.000220
      4          6           0        1.143099   -0.178835   -0.000610
      5          1           0       -1.301436   -2.479189    0.000150
      6          1           0        1.393884   -2.428585    0.000530
      7          6           0       -0.048485    2.032038    0.000610
      8          1           0        0.972185    2.396606   -0.094460
      9          1           0       -0.642575    2.395570   -0.837440
     10          1           0       -0.479395    2.405709    0.929990
     11          7           0       -0.010159    0.589908   -0.002600
     12          8           0        2.270120    0.240123    0.000710
     13          8           0       -2.271730    0.164134    0.001620
 ---------------------------------------------------------------------

 SCF Done:  E(RwB97XD) =  -398.780912572     A.U. after   13 cycles

 The electronic state is 1-A.
 Alpha  occ. eigenvalues --  -19.25163 -19.25116 -14.48564 -10.41433 -10.41305
 Alpha  occ. eigenvalues --  -10.32318 -10.32220 -10.31991  -1.18718  -1.16710
 Alpha  occ. eigenvalues --   -1.07344  -0.93830  -0.81534  -0.77566  -0.70793
 Alpha  occ. eigenvalues --   -0.65792  -0.59474  -0.58803  -0.56124  -0.54291
 Alpha  occ. eigenvalues --   -0.53764  -0.51495  -0.50561  -0.49551  -0.48662
 Alpha  occ. eigenvalues --   -0.39055  -0.38961  -0.35961  -0.35903
 Alpha virt. eigenvalues --   -0.02619   0.12480   0.12764   0.13667   0.14779
 Alpha virt. eigenvalues --    0.16861   0.17599   0.19815   0.21006   0.21354
 Alpha virt. eigenvalues --    0.22373   0.23003   0.24776   0.27350   0.29412

 Mulliken charges:
               1
     1  C    0.299835
     2  C   -0.180026
     3  C   -0.161779
     4  C    0.286714
     5  H    0.183446
     6  H    0.184283
     7  C   -0.285868
     8  H    0.163487
     9  H    0.151603
    10  H    0.149794
    11  N   -0.089436
    12  O   -0.352675
    13  O   -0.349378
 Sum of Mulliken charges =   0.00000

 Dipole moment (field-independent basis, Debye):
    X=              0.0584    Y=             -1.3692    Z=             -0.0108  Tot=              1.3705
 Quadrupole moment (field-independent basis, Debye-Ang):
   XX=            -60.5048   YY=            -35.3184   ZZ=            -44.9287
   XY=             -0.3220   XZ=              0.0063   YZ=             -0.0262

  Exact polarizability: 103.040  -0.334  78.684   0.006   0.162  46.437
 Approx polarizability: 110.093   0.119  69.006   0.002   0.113  50.032

                      1                      2                      3
                      A                      A                      A
 Frequencies --     29.6843               140.1990               174.7842
 Red. masses --      1.0398                 6.5724                 4.1661
 Frc consts  --      0.0005                 0.0761                 0.0750
 IR Inten    --      0.1696                18.9073                 0.5623

                      4                      5                      6
                      A                      A                      A
 Frequencies --    269.7040               299.3324               388.5212
 Red. masses --      3.1834                 4.0974                 9.4286
 Frc consts  --      0.1364                 0.2163                 0.8385
 IR Inten    --      4.3118                 0.0009                28.9739

                      7                      8                      9
                      A                      A                      A
 Frequencies --    579.0564               619.8838               651.9463
 Red. masses --      3.9445                 9.0968                 2.0105
 Frc consts  --      0.7793                 2.0595                 0.5035
 IR Inten    --      0.1080                 3.3263                 1.5649

                     10                     11                     12
                      A                      A                      A
 Frequencies --    713.5240               751.9612               800.3885
 Red. masses --      7.6492                 5.4748                 7.3603
 Frc consts  --      2.2945                 1.8239                 2.7781
 IR Inten    --     54.9584                 0.2628                 0.0309

                     13                     14                     15
                      A                      A                      A
 Frequencies --    869.8167               965.1204              1007.7014
 Red. masses --      2.1921                 2.0789                 1.3167
 Frc consts  --      0.9772                 1.1409                 0.7878
 IR Inten    --     87.6496                44.3783                 0.0049

                     16                     17                     18
                      A                      A                      A
 Frequencies --   1061.1501              1127.0146              1159.8130
 Red. masses --      1.4430                 2.4444                 2.5877
 Frc consts  --      0.9573                 1.8293                 2.0509
 IR Inten    --     18.8990                42.1151                 5.4511

                     19                     20                     21
                      A                      A                      A
 Frequencies --   1162.8010              1299.7770              1338.2904
 Red. masses --      1.3590                 3.2407                 1.8404
 Frc consts  --      1.0826                 3.2257                 1.9421
 IR Inten    --      2.0032                77.2673                 1.5870

                     22                     23                     24
                      A                      A                      A
 Frequencies --   1441.1447              1481.4662              1490.3643
 Red. masses --      1.5723                 1.6686                 1.2762
 Frc consts  --      1.9240                 2.1577                 1.6702
 IR Inten    --     63.2611               171.4912                80.1373

                     25                     26                     27
                      A                      A                      A
 Frequencies --   1512.0534              1685.7724              1809.7376
 Red. masses --      1.2240                 6.8848                12.3767
 Frc consts  --      1.6489                11.5276                23.8828
 IR Inten    --     45.7427                 2.6829              1105.3829

                     28                     29                     30
                      A                      A                      A
 Frequencies --   1881.4467              3074.8585              3146.5908
 Red. masses --     11.7975                 1.0345                 1.1055
 Frc consts  --     24.6051                 5.7627                 6.4489
 IR Inten    --     15.7349                31.5250                13.4977

                     31                     32                     33
                      A                      A                      A
 Frequencies --   3180.5944              3260.3429              3281.7260
 Red. masses --      1.1036                 1.0903                 1.1103
 Frc consts  --      6.5777                 6.8286                 7.0455
 IR Inten    --      1.0402                 0.1919                 0.9400

 - Thermochemistry -
 -------------------
 Temperature   298.150 Kelvin.  Pressure   1.00000 Atm.
 Atom     1 has atomic number  6 and mass  12.00000

 Molecular mass:   111.03203 amu.
 Principal axes and moments of inertia in atomic units:
                           1         2         3
     Eigenvalues --   538.76312 762.298041289.72243
           X            0.99997  -0.00827   0.00017
           Y            0.00827   0.99997   0.00001
           Z           -0.00017   0.00000   1.00000
 This molecule is an asymmetric top.
 Rotational symmetry number  1.
 Warning -- assumption of classical behavior for rotation
           may cause significant error
 Rotational temperatures (Kelvin)      0.16076     0.11362     0.06716
 Rotational constants (GHZ):           3.34979     2.36750     1.39933
 Zero-point vibrational energy     255142.9 (Joules/Mol)
                                   60.98062 (Kcal/Mol)
 Warning -- explicit consideration of   8 degrees of freedom as
           vibrations may cause significant error
 Vibrational temperatures:     42.71   201.71   251.48   388.04   430.67
          (Kelvin)            558.99   833.13   891.87   938.00  1026.60
                             1081.90  1151.58  1251.47  1388.59  1449.86
                             1526.76  1621.52  1668.71  1673.01  1870.09
                             1925.50  2073.48  2131.50  2144.30  2175.50
                             2425.45  2603.81  2706.98  4424.03  4527.24
                             4576.16  4690.90  4721.67

 Zero-point correction=                           0.097179 (Hartree/Particle)
 Thermal correction to Energy=                    0.104362
 Thermal correction to Enthalpy=                  0.105306
 Thermal correction to Gibbs Free Energy=         0.064651
 Sum of electronic and zero-point Energies=           -398.683734
 Sum of electronic and thermal Energies=              -398.676551
 Sum of electronic and thermal Enthalpies=            -398.675606
 Sum of electronic and thermal Free Energies=         -398.716261

                     E (Thermal)             CV                S
                      KCal/Mol        Cal/Mol-Kelvin    Cal/Mol-Kelvin
 Total                   65.488             24.854             85.566
 Electronic               0.000              0.000              0.000
 Translational            0.889              2.981             40.030
 Rotational               0.889              2.981             27.762
 Vibrational             63.711             18.892             17.774
 Vibration     1          0.593              1.984              5.850
 Vibration     2          0.615              1.913              2.801
 Vibration     3          0.627              1.873              2.383
 Vibration     4          0.674              1.729              1.598
 Vibration     5          0.692              1.675              1.421
 Vibration     6          0.757              1.495              1.006
 Vibration     7          0.936              1.077              0.487
 Vibration     8          0.980              0.990              0.417

 1\1\GINC-D10S1B4\Freq\RwB97XD\def2TZVP\C5H5N1O2\PMMASS\24-Feb-2022\0\\
 #n wB97XD/Def2TZVP scrf(smd,solvent=toluene) freq\\dieneophile diels-a
 lder toluene - freq\\0,1\C,-1.13226,-0.22072,-0.0002\C,-0.63136,-1.633
 13,0.00011\C,0.69257,-1.60827,0.00022\C,1.1431,-0.17883,-0.00061\H,-1.
 30143,-2.47919,0.00015\H,1.39389,-2.42858,0.00053\C,-0.04849,2.03204,0
 .00061\H,0.97218,2.39661,-0.09446\H,-0.64258,2.39557,-0.83744\H,-0.479
 4,2.40571,0.92999\N,-0.01016,0.58991,-0.0026\O,2.27012,0.24013,0.00071
 \O,-2.27173,0.16413,0.00162\\Version=ES64L-G09RevD.01\State=1-A\HF=-39

 Normal termination of Gaussian 09 at Thu Feb 24 23:25:09 2022.
