 Gaussian 09, Revision D.01,
 Gaussian 09:  ES64L-G09RevD.01 24-Apr-2013

 -------------------------------------------------
 #n wB97XD/Def2TZVP scrf(smd,solvent=toluene) freq
 -------------------------------------------------

 -------------------------------
 diels product in toluene - freq
 -------------------------------
 Symbolic Z-matrix:
 Charge =  0 Multiplicity = 1

                         Standard orientation:
 ---------------------------------------------------------------------
 Center     Atomic      Atomic             Coordinates (Angstroms)
 Number     Number       Type             X           Y           Z
 ---------------------------------------------------------------------
      1          6           0       -2.875000    0.204499   -0.200169
      2          6           0       -1.565131    0.819300   -0.668429
      3          6           0       -0.585550   -0.369720   -0.711289
      4          6           0       -1.384909   -1.547390   -0.172079
      5          1           0       -1.755091    1.194109   -1.675609
      6          1           0       -0.363510   -0.630710   -1.749469
      7          6           0       -3.735549   -2.006802    0.517311
      8          1           0       -3.305998   -2.990122    0.692421
      9          1           0       -4.157989   -1.616912    1.442691
     10          1           0       -4.526449   -2.077782   -0.229149
     11          7           0       -2.682659   -1.136201    0.047381
     12          8           0       -0.978478   -2.663520    0.022301
     13          8           0       -3.928551    0.771548   -0.054719
     14          6           0        0.741500   -0.233299    0.052071
     15          1           0        1.043561   -1.238909    0.351821
     16          6           0       -1.194561    2.020320    0.230441
     17          1           0       -2.127762    2.389319    0.661651
     18          6           0       -0.281041    1.621590    1.353671
     19          1           0       -0.325541    2.224690    2.254491
     20          6           0        0.589580    0.624811    1.276051
     21          1           0        1.246770    0.416721    2.112021
     22          6           0       -0.603662    3.182830   -0.572789
     23          1           0       -1.328152    3.552310   -1.301509
     24          1           0       -0.339393    4.010240    0.088381
     25          1           0        0.300148    2.887491   -1.107719
     26          6           0        1.831480    0.285902   -0.887179
     27          1           0        1.984770   -0.419328   -1.704729
     28          1           0        1.567909    1.260192   -1.294849
     29          6           0        3.904850   -0.543707   -0.092659
     30          6           0        5.131730   -0.163306    0.679001
     31          1           0        4.856640    0.059394    1.711651
     32          1           0        5.847051   -0.981186    0.662731
     33          1           0        5.580339    0.736184    0.256831
     34          8           0        3.682991   -1.630127   -0.556409
     35          8           0        3.066400    0.498042   -0.202059
 ---------------------------------------------------------------------

 SCF Done:  E(RwB97XD) =  -861.392429868     A.U. after   13 cycles

 The electronic state is 1-A.
 Alpha  occ. eigenvalues --  -19.29611 -19.23791 -19.23753 -19.23439 -14.49063
 Alpha  occ. eigenvalues --  -10.41539 -10.40330 -10.40142 -10.34159 -10.31699
 Alpha  occ. eigenvalues --  -10.31351 -10.31009 -10.30283 -10.30176 -10.28703
 Alpha  occ. eigenvalues --  -10.28555 -10.28436 -10.27694  -1.21419  -1.17938
 Alpha  occ. eigenvalues --   -1.15691  -1.12346  -1.06490  -0.96774  -0.90211
 Alpha  occ. eigenvalues --   -0.89210  -0.86063  -0.82690  -0.80163  -0.78821
 Alpha  occ. eigenvalues --   -0.74892  -0.71429  -0.71121  -0.66391  -0.64429
 Alpha  occ. eigenvalues --   -0.61522  -0.59898  -0.59546  -0.58211  -0.57654
 Alpha  occ. eigenvalues --   -0.56949  -0.56452  -0.55447  -0.53793  -0.52950
 Alpha  occ. eigenvalues --   -0.52387  -0.51646  -0.51024  -0.50816  -0.49761
 Alpha  occ. eigenvalues --   -0.48910  -0.48755  -0.48277  -0.46804  -0.46201
 Alpha  occ. eigenvalues --   -0.45996  -0.44904  -0.44430  -0.42378  -0.41711
 Alpha  occ. eigenvalues --   -0.39592  -0.39031  -0.37426  -0.36494  -0.36187
 Alpha  occ. eigenvalues --   -0.34511  -0.33505
 Alpha virt. eigenvalues --    0.05191   0.07404   0.08083   0.09088   0.10993
 Alpha virt. eigenvalues --    0.12247   0.13018   0.13726   0.14412   0.15436
 Alpha virt. eigenvalues --    0.16579   0.17136   0.17669   0.18098   0.18807

 Mulliken charges:
               1
     1  C    0.184047
     2  C   -0.018569
     3  C   -0.012677
     4  C    0.185786
     5  H    0.113408
     6  H    0.118329
     7  C   -0.293052
     8  H    0.166689
     9  H    0.153662
    10  H    0.151387
    11  N   -0.083980
    12  O   -0.370563
    13  O   -0.371657
    14  C    0.038369
    15  H    0.135526
    16  C    0.085255
    17  H    0.104775
    18  C   -0.254596
    19  H    0.140456
    20  C   -0.242679
    21  H    0.136679
    22  C   -0.398100
    23  H    0.136050
    24  H    0.134112
    25  H    0.107144
    26  C   -0.093620
    27  H    0.141507
    28  H    0.135414
    29  C    0.363814
    30  C   -0.372760
    31  H    0.150015
    32  H    0.147529
    33  H    0.149169
    34  O   -0.382538
    35  O   -0.284332
 Sum of Mulliken charges =   0.00000

 Dipole moment (field-independent basis, Debye):
    X=              1.0493    Y=              3.2241    Z=              0.0399  Tot=              3.3908
 Quadrupole moment (field-independent basis, Debye-Ang):
   XX=           -107.8017   YY=           -115.9666   ZZ=            -99.3205
   XY=             14.1919   XZ=              4.9800   YZ=             -2.1137

  Exact polarizability: 209.399 -13.883 193.638   2.169   0.151 144.926
 Approx polarizability: 183.367 -19.810 192.147   0.552   1.806 152.290

                      1                      2                      3
                      A                      A                      A
 Frequencies --     23.4473                34.1940                56.7735
 Red. masses --      7.4917                 5.4040                 7.9376
 Frc consts  --      0.0024                 0.0037                 0.0151
 IR Inten    --      0.1139                 0.6238                 1.6966

                      4                      5                      6
                      A                      A                      A
 Frequencies --     70.9867                93.1774               123.9412
 Red. masses --      3.5206                 3.1060                 2.2679
 Frc consts  --      0.0105                 0.0159                 0.0205
 IR Inten    --      3.7315                 3.3650                 2.9227

                      7                      8                      9
                      A                      A                      A
 Frequencies --    134.8166               141.9651               153.0533
 Red. masses --      1.5969                 4.0960                 1.0557
 Frc consts  --      0.0171                 0.0486                 0.0146
 IR Inten    --      0.9201                 6.2328                 0.2027

                     10                     11                     12
                      A                      A                      A
 Frequencies --    170.5667               208.6514               231.7241
 Red. masses --      3.8527                 3.4113                 4.7505
 Frc consts  --      0.0660                 0.0875                 0.1503
 IR Inten    --      5.1344                 2.8378                 0.4821

                     13                     14                     15
                      A                      A                      A
 Frequencies --    253.9814               267.6180               288.0270
 Red. masses --      3.2886                 1.5538                 1.9025
 Frc consts  --      0.1250                 0.0656                 0.0930
 IR Inten    --      2.9745                 2.6131                 2.8736

                     16                     17                     18
                      A                      A                      A
 Frequencies --    299.7459               317.8439               338.1078
 Red. masses --      3.0596                 4.4048                 2.9495
 Frc consts  --      0.1620                 0.2622                 0.1987
 IR Inten    --      4.0592                 7.5026                 8.8150

                     19                     20                     21
                      A                      A                      A
 Frequencies --    408.3450               423.3160               463.8318
 Red. masses --      5.0238                 4.4180                 3.7112
 Frc consts  --      0.4936                 0.4664                 0.4704
 IR Inten    --     35.9274                 7.9948                10.4764

                     22                     23                     24
                      A                      A                      A
 Frequencies --    493.0909               540.6639               587.8957
 Red. masses --      3.9676                 4.1070                 2.9853
 Frc consts  --      0.5684                 0.7073                 0.6079
 IR Inten    --      4.6113                 5.3569                 1.4086

                     25                     26                     27
                      A                      A                      A
 Frequencies --    619.1232               620.1608               628.2411
 Red. masses --      7.0966                 3.7614                 3.0353
 Frc consts  --      1.6027                 0.8523                 0.7058
 IR Inten    --      4.5642                 6.5634                 3.1938

                     28                     29                     30
                      A                      A                      A
 Frequencies --    658.8224               661.6551               704.2258
 Red. masses --      4.7930                 5.5782                 3.5143
 Frc consts  --      1.2257                 1.4388                 1.0269
 IR Inten    --      6.1321                 5.2959                 3.6472

                     31                     32                     33
                      A                      A                      A
 Frequencies --    760.6173               803.1376               813.9454
 Red. masses --      1.5692                 5.6271                 5.5457
 Frc consts  --      0.5349                 2.1385                 2.1647
 IR Inten    --     74.3826                11.8779                 8.0821

                     34                     35                     36
                      A                      A                      A
 Frequencies --    826.2782               847.1581               894.8649
 Red. masses --      3.6161                 2.4606                 3.7382
 Frc consts  --      1.4546                 1.0404                 1.7637
 IR Inten    --      4.7566                30.0964                 4.3177

                     37                     38                     39
                      A                      A                      A
 Frequencies --    934.5430               942.2277               977.9289
 Red. masses --      2.1756                 3.5624                 1.9880
 Frc consts  --      1.1195                 1.8634                 1.1202
 IR Inten    --      7.0103                 1.8944                20.4169

                     40                     41                     42
                      A                      A                      A
 Frequencies --   1013.9902              1017.4158              1022.7730
 Red. masses --      1.4792                 1.9891                 1.6001
 Frc consts  --      0.8961                 1.2131                 0.9862
 IR Inten    --     19.4595                 1.6468                24.3698

                     43                     44                     45
                      A                      A                      A
 Frequencies --   1065.9567              1072.7632              1079.0067
 Red. masses --      2.1165                 2.1782                 1.8380
 Frc consts  --      1.4169                 1.4769                 1.2608
 IR Inten    --      1.2443                 7.8659                 9.0872

                     46                     47                     48
                      A                      A                      A
 Frequencies --   1092.3697              1101.9538              1112.8829
 Red. masses --      3.0119                 4.4571                 2.2938
 Frc consts  --      2.1175                 3.1888                 1.6738
 IR Inten    --     26.0431                61.0089                18.5008

                     49                     50                     51
                      A                      A                      A
 Frequencies --   1117.3584              1148.7059              1162.0783
 Red. masses --      3.0594                 1.8528                 1.8773
 Frc consts  --      2.2505                 1.4405                 1.4936
 IR Inten    --     61.6617                10.5947                65.4245

                     52                     53                     54
                      A                      A                      A
 Frequencies --   1164.3785              1171.8838              1211.0705
 Red. masses --      1.7876                 1.4044                 1.1164
 Frc consts  --      1.4279                 1.1364                 0.9648
 IR Inten    --     31.3501                14.9412                 0.9719

                     55                     56                     57
                      A                      A                      A
 Frequencies --   1269.2152              1279.9555              1286.6536
 Red. masses --      1.5441                 2.2762                 1.3970
 Frc consts  --      1.4655                 2.1971                 1.3626
 IR Inten    --     26.0266               376.2558                15.0000

                     58                     59                     60
                      A                      A                      A
 Frequencies --   1305.4592              1323.7147              1332.1683
 Red. masses --      1.5276                 1.4985                 1.4430
 Frc consts  --      1.5339                 1.5471                 1.5088
 IR Inten    --     49.4124                 7.8547               158.0556

                     61                     62                     63
                      A                      A                      A
 Frequencies --   1337.5225              1362.2772              1368.5254
 Red. masses --      2.7407                 1.5137                 1.3618
 Frc consts  --      2.8887                 1.6551                 1.5027
 IR Inten    --    138.3906                24.6311                 9.8119

                     64                     65                     66
                      A                      A                      A
 Frequencies --   1385.4373              1402.5009              1407.6018
 Red. masses --      1.3967                 1.5010                 1.2877
 Frc consts  --      1.5796                 1.7396                 1.5033
 IR Inten    --      2.5452                 2.7476                15.2026

                     67                     68                     69
                      A                      A                      A
 Frequencies --   1415.4805              1434.5116              1444.0182
 Red. masses --      1.3133                 1.4112                 1.6031
 Frc consts  --      1.5503                 1.7110                 1.9695
 IR Inten    --     69.6203                28.6506                 8.0840

                     70                     71                     72
                      A                      A                      A
 Frequencies --   1447.8530              1471.6715              1480.0171
 Red. masses --      1.8065                 1.0519                 1.0473
 Frc consts  --      2.2312                 1.3423                 1.3516
 IR Inten    --     78.2353                19.1645                14.8499

                     73                     74                     75
                      A                      A                      A
 Frequencies --   1481.7668              1490.4852              1495.0804
 Red. masses --      2.1678                 1.0518                 1.0730
 Frc consts  --      2.8044                 1.3767                 1.4131
 IR Inten    --    223.9797                19.9915                11.8223

                     76                     77                     78
                      A                      A                      A
 Frequencies --   1499.4793              1511.4423              1516.7983
 Red. masses --      1.0660                 1.0898                 1.1614
 Frc consts  --      1.4121                 1.4669                 1.5743
 IR Inten    --      6.8084                16.1695                42.6833

                     79                     80                     81
                      A                      A                      A
 Frequencies --   1748.3466              1793.0872              1830.0577
 Red. masses --      6.8473                12.7783                10.9689
 Frc consts  --     12.3317                24.2062                21.6444
 IR Inten    --      3.7099               884.8419               355.0201

                     82                     83                     84
                      A                      A                      A
 Frequencies --   1869.7206              3058.6794              3074.7407
 Red. masses --     12.0898                 1.0365                 1.0836
 Frc consts  --     24.9013                 5.7132                 6.0359
 IR Inten    --     59.5615                29.1200                 7.9476

                     85                     86                     87
                      A                      A                      A
 Frequencies --   3079.0610              3079.6216              3079.7642
 Red. masses --      1.0810                 1.0362                 1.0387
 Frc consts  --      6.0382                 5.7899                 5.8044
 IR Inten    --      5.1355                27.5374                 0.6469

                     88                     89                     90
                      A                      A                      A
 Frequencies --   3098.4077              3101.5276              3104.8685
 Red. masses --      1.0826                 1.0845                 1.0636
 Frc consts  --      6.1234                 6.1467                 6.0413
 IR Inten    --      2.5382                 5.9859                32.8423

                     91                     92                     93
                      A                      A                      A
 Frequencies --   3130.7586              3144.9817              3151.6373
 Red. masses --      1.1026                 1.1024                 1.0993
 Frc consts  --      6.3677                 6.4242                 6.4335
 IR Inten    --     27.6761                39.0255                 3.6378

                     94                     95                     96
                      A                      A                      A
 Frequencies --   3153.3706              3176.4075              3178.7596
 Red. masses --      1.1058                 1.0873                 1.0999
 Frc consts  --      6.4784                 6.4634                 6.5483
 IR Inten    --     10.2229                 8.6825                 8.2914

                     97                     98                     99
                      A                      A                      A
 Frequencies --   3184.5395              3195.4141              3207.0430
 Red. masses --      1.1047                 1.1039                 1.0965
 Frc consts  --      6.6005                 6.6411                 6.6444
 IR Inten    --      0.4855                 6.4269                17.0740

 - Thermochemistry -
 -------------------
 Temperature   298.150 Kelvin.  Pressure   1.00000 Atm.
 Atom     1 has atomic number  6 and mass  12.00000

 Molecular mass:   251.11576 amu.
 Principal axes and moments of inertia in atomic units:
                           1         2         3
     Eigenvalues --  2391.572306769.799578361.24691
           X            0.99994   0.01001   0.00391
           Y           -0.00995   0.99985  -0.01433
           Z           -0.00405   0.01429   0.99989
 This molecule is an asymmetric top.
 Rotational symmetry number  1.
 Warning -- assumption of classical behavior for rotation
           may cause significant error
 Rotational temperatures (Kelvin)      0.03622     0.01279     0.01036
 Rotational constants (GHZ):           0.75463     0.26659     0.21585
 Zero-point vibrational energy     768981.8 (Joules/Mol)
                                  183.79105 (Kcal/Mol)
 Warning -- explicit consideration of  26 degrees of freedom as
           vibrations may cause significant error
 Vibrational temperatures:     33.74    49.20    81.68   102.13   134.06
          (Kelvin)            178.32   193.97   204.26   220.21   245.41
                              300.20   333.40   365.42   385.04   414.41
                              431.27   457.31   486.46   587.52   609.06
                              667.35   709.45   777.89   845.85   890.78
                              892.27   903.90   947.90   951.97  1013.22
                             1094.36  1155.53  1171.08  1188.83  1218.87
                             1287.51  1344.60  1355.65  1407.02  1458.90
                             1463.83  1471.54  1533.67  1543.46  1552.45
                             1571.67  1585.46  1601.19  1607.63  1652.73
                             1671.97  1675.28  1686.08  1742.46  1826.12
                             1841.57  1851.21  1878.26  1904.53  1916.69
                             1924.39  1960.01  1969.00  1993.33  2017.88
                             2025.22  2036.56  2063.94  2077.62  2083.13
                             2117.40  2129.41  2131.93  2144.47  2151.08
                             2157.41  2174.63  2182.33  2515.48  2579.85
                             2633.04  2690.11  4400.75  4423.86  4430.08
                             4430.88  4431.09  4457.91  4462.40  4467.21
                             4504.46  4524.92  4534.50  4536.99  4570.14
                             4573.52  4581.84  4597.48  4614.21

 Zero-point correction=                           0.292890 (Hartree/Particle)
 Thermal correction to Energy=                    0.310120
 Thermal correction to Enthalpy=                  0.311064
 Thermal correction to Gibbs Free Energy=         0.246559
 Sum of electronic and zero-point Energies=           -861.099540
 Sum of electronic and thermal Energies=              -861.082310
 Sum of electronic and thermal Enthalpies=            -861.081366
 Sum of electronic and thermal Free Energies=         -861.145871

                     E (Thermal)             CV                S
                      KCal/Mol        Cal/Mol-Kelvin    Cal/Mol-Kelvin
 Total                  194.603             64.218            135.762
 Electronic               0.000              0.000              0.000
 Translational            0.889              2.981             42.463
 Rotational               0.889              2.981             33.270
 Vibrational            192.826             58.257             60.029
 Vibration     1          0.593              1.985              6.318
 Vibration     2          0.594              1.983              5.570
 Vibration     3          0.596              1.975              4.566
 Vibration     4          0.598              1.968              4.126
 Vibration     5          0.602              1.954              3.592
 Vibration     6          0.610              1.929              3.038
 Vibration     7          0.613              1.919              2.876
 Vibration     8          0.615              1.911              2.777
 Vibration     9          0.619              1.899              2.634
 Vibration    10          0.626              1.879              2.429
 Vibration    11          0.642              1.827              2.055
 Vibration    12          0.653              1.792              1.866
 Vibration    13          0.665              1.756              1.703
 Vibration    14          0.673              1.733              1.612
 Vibration    15          0.685              1.696              1.486
 Vibration    16          0.692              1.674              1.418
 Vibration    17          0.704              1.639              1.321
 Vibration    18          0.718              1.599              1.221
 Vibration    19          0.773              1.452              0.932
 Vibration    20          0.785              1.420              0.881
 Vibration    21          0.821              1.330              0.755
 Vibration    22          0.849              1.265              0.676
 Vibration    23          0.896              1.160              0.564
 Vibration    24          0.945              1.058              0.471
 Vibration    25          0.979              0.992              0.418
 Vibration    26          0.980              0.989              0.416

 Normal termination of Gaussian 09 at Fri Feb 25 02:14:58 2022.
