 Gaussian 09, Revision D.01,
 Gaussian 09:  ES64L-G09RevD.01 24-Apr-2013

 ------------------------------------------------
 #n wB97XD/Def2TZVP scrf(smd,solvent=toluene) opt
 ------------------------------------------------

 ------------------------------------
 diels-alder product in toluene - opt
 ------------------------------------
 Symbolic Z-matrix:
 Charge =  0 Multiplicity = 1

 SCF Done:  E(RwB97XD) =  -861.392429160     A.U. after   13 cycles
 SCF Done:  E(RwB97XD) =  -861.392430008     A.U. after    8 cycles
 SCF Done:  E(RwB97XD) =  -861.392429862     A.U. after    8 cycles
 SCF Done:  E(RwB97XD) =  -861.392430359     A.U. after    7 cycles
 SCF Done:  E(RwB97XD) =  -861.392430127     A.U. after    7 cycles
 SCF Done:  E(RwB97XD) =  -861.392430151     A.U. after    7 cycles
 SCF Done:  E(RwB97XD) =  -861.392430066     A.U. after    7 cycles
 SCF Done:  E(RwB97XD) =  -861.392429942     A.U. after    7 cycles
 SCF Done:  E(RwB97XD) =  -861.392429936     A.U. after    6 cycles
 SCF Done:  E(RwB97XD) =  -861.392429869     A.U. after    6 cycles
 Optimization completed.
    -- Stationary point found.

                         Standard orientation:
 ---------------------------------------------------------------------
 Center     Atomic      Atomic             Coordinates (Angstroms)
 Number     Number       Type             X           Y           Z
 ---------------------------------------------------------------------
      1          6           0       -2.875004    0.204496   -0.200165
      2          6           0       -1.565131    0.819297   -0.668433
      3          6           0       -0.585553   -0.369715   -0.711291
      4          6           0       -1.384909   -1.547392   -0.172076
      5          1           0       -1.755094    1.194108   -1.675605
      6          1           0       -0.363513   -0.630706   -1.749473
      7          6           0       -3.735548   -2.006805    0.517314
      8          1           0       -3.305999   -2.990123    0.692423
      9          1           0       -4.157985   -1.616909    1.442690
     10          1           0       -4.526447   -2.077777   -0.229152
     11          7           0       -2.682661   -1.136203    0.047379
     12          8           0       -0.978478   -2.663520    0.022301
     13          8           0       -3.928555    0.771551   -0.054718
     14          6           0        0.741502   -0.233295    0.052071
     15          1           0        1.043562   -1.238913    0.351816
     16          6           0       -1.194564    2.020322    0.230441
     17          1           0       -2.127762    2.389322    0.661655
     18          6           0       -0.281037    1.621585    1.353674
     19          1           0       -0.325543    2.224689    2.254488
     20          6           0        0.589582    0.624805    1.276050
     21          1           0        1.246767    0.416722    2.112016
     22          6           0       -0.603662    3.182835   -0.572790
     23          1           0       -1.328149    3.552314   -1.301510
     24          1           0       -0.339389    4.010244    0.088379
     25          1           0        0.300149    2.887491   -1.107722
     26          6           0        1.831484    0.285904   -0.887181
     27          1           0        1.984767   -0.419328   -1.704729
     28          1           0        1.567910    1.260191   -1.294846
     29          6           0        3.904848   -0.543707   -0.092656
     30          6           0        5.131732   -0.163305    0.679003
     31          1           0        4.856637    0.059388    1.711648
     32          1           0        5.847051   -0.981190    0.662733
     33          1           0        5.580341    0.736175    0.256833
     34          8           0        3.682992   -1.630125   -0.556409
     35          8           0        3.066402    0.498040   -0.202055
 ---------------------------------------------------------------------

 The electronic state is 1-A.
 Alpha  occ. eigenvalues --  -19.29611 -19.23791 -19.23753 -19.23439 -14.49063
 Alpha  occ. eigenvalues --  -10.41539 -10.40330 -10.40142 -10.34159 -10.31699
 Alpha  occ. eigenvalues --  -10.31351 -10.31009 -10.30283 -10.30176 -10.28703
 Alpha  occ. eigenvalues --  -10.28554 -10.28436 -10.27694  -1.21419  -1.17938
 Alpha  occ. eigenvalues --   -1.15691  -1.12346  -1.06490  -0.96774  -0.90211
 Alpha  occ. eigenvalues --   -0.89210  -0.86063  -0.82690  -0.80163  -0.78821
 Alpha  occ. eigenvalues --   -0.74892  -0.71429  -0.71121  -0.66391  -0.64429
 Alpha  occ. eigenvalues --   -0.61522  -0.59898  -0.59546  -0.58211  -0.57654
 Alpha  occ. eigenvalues --   -0.56950  -0.56452  -0.55447  -0.53793  -0.52950
 Alpha  occ. eigenvalues --   -0.52387  -0.51646  -0.51024  -0.50816  -0.49761
 Alpha  occ. eigenvalues --   -0.48910  -0.48755  -0.48277  -0.46804  -0.46201
 Alpha  occ. eigenvalues --   -0.45996  -0.44904  -0.44430  -0.42378  -0.41711
 Alpha  occ. eigenvalues --   -0.39592  -0.39031  -0.37426  -0.36494  -0.36187
 Alpha  occ. eigenvalues --   -0.34511  -0.33505
 Alpha virt. eigenvalues --    0.05191   0.07404   0.08083   0.09088   0.10993
 Alpha virt. eigenvalues --    0.12248   0.13018   0.13726   0.14412   0.15436
 Alpha virt. eigenvalues --    0.16579   0.17136   0.17669   0.18098   0.18807

 Mulliken charges:
               1
     1  C    0.184049
     2  C   -0.018567
     3  C   -0.012679
     4  C    0.185786
     5  H    0.113407
     6  H    0.118329
     7  C   -0.293051
     8  H    0.166690
     9  H    0.153662
    10  H    0.151387
    11  N   -0.083979
    12  O   -0.370560
    13  O   -0.371661
    14  C    0.038365
    15  H    0.135527
    16  C    0.085250
    17  H    0.104777
    18  C   -0.254594
    19  H    0.140456
    20  C   -0.242679
    21  H    0.136679
    22  C   -0.398101
    23  H    0.136051
    24  H    0.134112
    25  H    0.107144
    26  C   -0.093617
    27  H    0.141507
    28  H    0.135414
    29  C    0.363813
    30  C   -0.372759
    31  H    0.150013
    32  H    0.147528
    33  H    0.149169
    34  O   -0.382537
    35  O   -0.284331
 Sum of Mulliken charges =   0.00000

 Dipole moment (field-independent basis, Debye):
    X=              1.0492    Y=              3.2241    Z=              0.0399  Tot=              3.3907
 Quadrupole moment (field-independent basis, Debye-Ang):
   XX=           -107.8022   YY=           -115.9665   ZZ=            -99.3205
   XY=             14.1920   XZ=              4.9798   YZ=             -2.1137

 Normal termination of Gaussian 09 at Wed Feb 23 18:45:38 2022.
