 Gaussian 09, Revision D.01,
 Gaussian 09:  ES64L-G09RevD.01 24-Apr-2013

 -------------------------------------------------
 #n wB97XD/Def2TZVP scrf(smd,solvent=toluene) freq
 -------------------------------------------------

 -----------------------------
 ts diels-alder toluene - freq
 -----------------------------
 Symbolic Z-matrix:
 Charge =  0 Multiplicity = 1

                         Standard orientation:
 ---------------------------------------------------------------------
 Center     Atomic      Atomic             Coordinates (Angstroms)
 Number     Number       Type             X           Y           Z
 ---------------------------------------------------------------------
      1          6           0       -2.632090   -0.658541    0.559101
      2          6           0       -1.629190    0.301969    1.083191
      3          6           0       -0.374250   -0.250471    0.888431
      4          6           0       -0.566400   -1.575161    0.239231
      5          1           0       -1.905570    0.997249    1.857901
      6          1           0        0.494680   -0.074481    1.501461
      7          6           0       -2.510300   -2.844211   -0.674189
      8          1           0       -2.040200   -3.023971   -1.640529
      9          1           0       -2.394310   -3.735471   -0.056029
     10          1           0       -3.569840   -2.643671   -0.817069
     11          7           0       -1.916770   -1.694141   -0.038709
     12          8           0        0.260500   -2.420091   -0.018359
     13          8           0       -3.836450   -0.606431    0.618841
     14          6           0       -0.816331    2.611919   -0.297309
     15          1           0       -0.869171    3.586359    0.178311
     16          6           0        0.445099    2.046529   -0.473309
     17          1           0        1.305389    2.599100   -0.114309
     18          6           0       -1.993471    1.921629   -0.485459
     19          1           0       -2.002110    1.098869   -1.192619
     20          6           0       -3.328151    2.523879   -0.192799
     21          1           0       -4.032001    1.767369    0.156991
     22          1           0       -3.257111    3.312879    0.557181
     23          1           0       -3.749921    2.956699   -1.105019
     24          6           0        0.625420    0.733179   -0.846899
     25          1           0       -0.113060    0.257869   -1.483109
     26          6           0        1.974370    0.096960   -0.948209
     27          1           0        2.387310    0.273650   -1.947719
     28          1           0        1.874220   -0.979600   -0.803709
     29          6           0        4.032860    0.124840    0.319671
     30          6           0        4.420750   -1.143820   -0.385289
     31          1           0        4.336850   -1.044430   -1.468259
     32          1           0        5.445970   -1.385610   -0.120219
     33          1           0        3.767420   -1.961940   -0.074379
     34          8           0        2.835180    0.668060    0.031931
     35          8           0        4.721890    0.674200    1.133231
 ---------------------------------------------------------------------

 SCF Done:  E(RwB97XD) =  -861.291850776     A.U. after   15 cycles

 The electronic state is 1-A.
 Alpha  occ. eigenvalues --  -19.29621 -19.24129 -19.23904 -19.22787 -14.48010
 Alpha  occ. eigenvalues --  -10.41589 -10.40489 -10.40406 -10.35082 -10.31845
 Alpha  occ. eigenvalues --  -10.31693 -10.31674 -10.31115 -10.30774 -10.29311
 Alpha  occ. eigenvalues --  -10.29141 -10.29099 -10.27765  -1.21048  -1.17732
 Alpha  occ. eigenvalues --   -1.15600  -1.12412  -1.06329  -0.94843  -0.91584
 Alpha  occ. eigenvalues --   -0.89280  -0.84967  -0.83417  -0.80533  -0.77450
 Alpha  occ. eigenvalues --   -0.75812  -0.71422  -0.70120  -0.67429  -0.64625
 Alpha  occ. eigenvalues --   -0.62227  -0.59969  -0.59598  -0.59076  -0.58097
 Alpha  occ. eigenvalues --   -0.57947  -0.55494  -0.55289  -0.53689  -0.53032
 Alpha  occ. eigenvalues --   -0.52910  -0.51950  -0.51268  -0.51184  -0.49569
 Alpha  occ. eigenvalues --   -0.49166  -0.48873  -0.48334  -0.47906  -0.47462
 Alpha  occ. eigenvalues --   -0.46957  -0.44896  -0.44323  -0.43586  -0.43216
 Alpha  occ. eigenvalues --   -0.38719  -0.38003  -0.36015  -0.35940  -0.35346
 Alpha  occ. eigenvalues --   -0.32477  -0.30989
 Alpha virt. eigenvalues --   -0.00663   0.02342   0.08402   0.10392   0.10628
 Alpha virt. eigenvalues --    0.11796   0.12601   0.12765   0.14532   0.15046
 Alpha virt. eigenvalues --    0.15570   0.16543   0.16854   0.17377   0.18246

 Mulliken charges:
               1
     1  C    0.234237
     2  C   -0.169864
     3  C   -0.129526
     4  C    0.238830
     5  H    0.175756
     6  H    0.177594
     7  C   -0.294751
     8  H    0.145452
     9  H    0.150011
    10  H    0.162097
    11  N   -0.084032
    12  O   -0.398081
    13  O   -0.385395
    14  C   -0.141513
    15  H    0.142125
    16  C   -0.147122
    17  H    0.162151
    18  C   -0.089744
    19  H    0.143675
    20  C   -0.370049
    21  H    0.160042
    22  H    0.125070
    23  H    0.142005
    24  C   -0.122188
    25  H    0.158373
    26  C   -0.088255
    27  H    0.148003
    28  H    0.163723
    29  C    0.319945
    30  C   -0.406796
    31  H    0.149523
    32  H    0.160507
    33  H    0.173340
    34  O   -0.246811
    35  O   -0.358329
 Sum of Mulliken charges =   0.00000

 Dipole moment (field-independent basis, Debye):
    X=             -1.6436    Y=             -0.0129    Z=             -3.6630  Tot=              4.0148
 Quadrupole moment (field-independent basis, Debye-Ang):
   XX=           -128.8988   YY=           -103.8610   ZZ=           -104.3096
   XY=            -10.3824   XZ=             -8.9669   YZ=              1.7702

  Exact polarizability: 255.083  -9.675 225.836  -5.632  -1.569 150.160
 Approx polarizability: 234.907  -8.580 214.410  -6.485  -2.731 166.188

 ******    1 imaginary frequencies (negative Signs) ******

                      1                      2                      3
                      A                      A                      A
 Frequencies --   -536.0916                28.0731                37.4198
 Red. masses --      7.9389                 5.8225                 3.6196
 Frc consts  --      1.3443                 0.0027                 0.0030
 IR Inten    --     12.2507                 2.3000                 6.9970

                      4                      5                      6
                      A                      A                      A
 Frequencies --     43.1136                60.7035                73.3310
 Red. masses --      3.7218                 1.3755                 4.2428
 Frc consts  --      0.0041                 0.0030                 0.0134
 IR Inten    --      1.1963                 1.0038                 2.2082

                      7                      8                      9
                      A                      A                      A
 Frequencies --     94.5738               122.1152               144.4516
 Red. masses --      2.8221                 8.9631                 4.9919
 Frc consts  --      0.0149                 0.0787                 0.0614
 IR Inten    --      3.0594                 0.2038                 1.7852

                     10                     11                     12
                      A                      A                      A
 Frequencies --    160.1113               170.7708               178.5438
 Red. masses --      6.0084                 9.3427                 3.0752
 Frc consts  --      0.0908                 0.1605                 0.0578
 IR Inten    --      2.0174                 8.9459                 2.4533

                     13                     14                     15
                      A                      A                      A
 Frequencies --    199.9968               207.1516               224.9783
 Red. masses --      2.9727                 1.2504                 1.1240
 Frc consts  --      0.0701                 0.0316                 0.0335
 IR Inten    --      2.8888                 0.2825                 1.1681

                     16                     17                     18
                      A                      A                      A
 Frequencies --    235.7116               268.6061               284.5938
 Red. masses --      3.2080                 2.7607                 3.3311
 Frc consts  --      0.1050                 0.1174                 0.1590
 IR Inten    --      3.0741                 5.0297                 4.1510

                     19                     20                     21
                      A                      A                      A
 Frequencies --    294.5769               326.8971               365.0587
 Red. masses --      3.0135                 2.7481                 3.0033
 Frc consts  --      0.1541                 0.1730                 0.2358
 IR Inten    --      1.3112                 2.0014                 0.4153

                     22                     23                     24
                      A                      A                      A
 Frequencies --    398.4739               440.8019               470.1738
 Red. masses --      8.3486                 4.5571                 3.2001
 Frc consts  --      0.7810                 0.5217                 0.4168
 IR Inten    --     35.4093                11.3548                 3.7191

                     25                     26                     27
                      A                      A                      A
 Frequencies --    496.6879               549.7924               588.9970
 Red. masses --      2.7433                 4.7528                 2.5081
 Frc consts  --      0.3987                 0.8464                 0.5126
 IR Inten    --      1.5139                 7.6349                 5.3976

                     28                     29                     30
                      A                      A                      A
 Frequencies --    609.8008               617.4641               632.9776
 Red. masses --      4.7434                 9.1646                 3.9553
 Frc consts  --      1.0392                 2.0587                 0.9337
 IR Inten    --     20.1822                12.4171                 7.0300

                     31                     32                     33
                      A                      A                      A
 Frequencies --    721.0854               726.7916               741.7696
 Red. masses --      3.9826                 7.6364                 4.8222
 Frc consts  --      1.2201                 2.3766                 1.5633
 IR Inten    --      1.9076                51.3607                 5.0554

                     34                     35                     36
                      A                      A                      A
 Frequencies --    779.3375               798.3213               801.0095
 Red. masses --      2.2241                 2.3536                 4.6197
 Frc consts  --      0.7959                 0.8838                 1.7464
 IR Inten    --      0.7154                14.5342                 8.9931

                     37                     38                     39
                      A                      A                      A
 Frequencies --    840.5452               875.9713               918.5681
 Red. masses --      2.1291                 1.9542                 1.4483
 Frc consts  --      0.8863                 0.8835                 0.7200
 IR Inten    --      8.6297                 7.0106                 2.7144

                     40                     41                     42
                      A                      A                      A
 Frequencies --    941.0588               966.9440               978.9870
 Red. masses --      1.5257                 1.3270                 2.0483
 Frc consts  --      0.7961                 0.7310                 1.1566
 IR Inten    --      7.4135                32.2488                64.5951

                     43                     44                     45
                      A                      A                      A
 Frequencies --    986.5803              1010.2331              1031.0705
 Red. masses --      1.2924                 1.8882                 1.4920
 Frc consts  --      0.7412                 1.1354                 0.9345
 IR Inten    --     82.1514                51.1269                 1.4768

                     46                     47                     48
                      A                      A                      A
 Frequencies --   1038.4899              1044.4388              1067.1507
 Red. masses --      1.4521                 1.3459                 1.6076
 Frc consts  --      0.9227                 0.8650                 1.0786
 IR Inten    --     75.6815                 7.7355                13.7191

                     49                     50                     51
                      A                      A                      A
 Frequencies --   1071.9350              1086.1969              1116.6763
 Red. masses --      1.6748                 1.5016                 1.9647
 Frc consts  --      1.1339                 1.0438                 1.4434
 IR Inten    --     16.9869                16.9392                32.0967

                     52                     53                     54
                      A                      A                      A
 Frequencies --   1134.9684              1154.4464              1157.6293
 Red. masses --      2.3585                 2.9065                 1.3823
 Frc consts  --      1.7900                 2.2823                 1.0914
 IR Inten    --     26.8995                42.7675                11.4597

                     55                     56                     57
                      A                      A                      A
 Frequencies --   1159.7017              1179.3314              1271.6968
 Red. masses --      3.1591                 1.9491                 1.7151
 Frc consts  --      2.5033                 1.5972                 1.6342
 IR Inten    --     77.3662                16.9734               428.5772

                     58                     59                     60
                      A                      A                      A
 Frequencies --   1281.1578              1288.2331              1299.2223
 Red. masses --      1.4998                 1.4694                 2.9654
 Frc consts  --      1.4504                 1.4367                 2.9492
 IR Inten    --     95.6666                92.7114                17.4636

                     61                     62                     63
                      A                      A                      A
 Frequencies --   1311.9966              1341.8552              1343.3328
 Red. masses --      1.4603                 1.5540                 1.5569
 Frc consts  --      1.4810                 1.6486                 1.6553
 IR Inten    --    150.1982                 6.7029                 5.8063

                     64                     65                     66
                      A                      A                      A
 Frequencies --   1372.8416              1408.6219              1426.1226
 Red. masses --      2.2387                 1.4051                 1.2849
 Frc consts  --      2.4859                 1.6427                 1.5397
 IR Inten    --     20.2796               125.1086                15.2569

                     67                     68                     69
                      A                      A                      A
 Frequencies --   1440.1791              1446.0693              1452.2144
 Red. masses --      1.5729                 1.7802                 2.4048
 Frc consts  --      1.9222                 2.1933                 2.9881
 IR Inten    --     78.9415               127.3438                 3.5098

                     70                     71                     72
                      A                      A                      A
 Frequencies --   1471.8738              1480.9167              1482.8651
 Red. masses --      1.1084                 1.5899                 1.0548
 Frc consts  --      1.4148                 2.0544                 1.3666
 IR Inten    --     29.1550               186.0428                24.7804

                     73                     74                     75
                      A                      A                      A
 Frequencies --   1485.7665              1492.7271              1497.4527
 Red. masses --      1.0741                 1.2108                 1.0790
 Frc consts  --      1.3970                 1.5896                 1.4255
 IR Inten    --     23.0743                79.6192                17.8393

                     76                     77                     78
                      A                      A                      A
 Frequencies --   1508.9684              1511.1707              1617.3918
 Red. masses --      1.1270                 1.0871                 4.1783
 Frc consts  --      1.5119                 1.4626                 6.4399
 IR Inten    --     34.9218                21.0018                26.7037

                     79                     80                     81
                      A                      A                      A
 Frequencies --   1623.4418              1779.2859              1842.0020
 Red. masses --      3.7089                11.9635                11.4762
 Frc consts  --      5.7593                22.3152                22.9418
 IR Inten    --     16.6529              1077.8848               495.2507

                     82                     83                     84
                      A                      A                      A
 Frequencies --   1845.9492              3042.3875              3051.3822
 Red. masses --     11.5609                 1.0662                 1.0393
 Frc consts  --     23.2103                 5.8146                 5.7013
 IR Inten    --    168.2282                23.7624                26.5888

                     85                     86                     87
                      A                      A                      A
 Frequencies --   3073.5190              3074.8522              3117.7546
 Red. masses --      1.0347                 1.0383                 1.0970
 Frc consts  --      5.7588                 5.7840                 6.2824
 IR Inten    --     43.2811                 0.9368                 9.5411

                     88                     89                     90
                      A                      A                      A
 Frequencies --   3123.4953              3142.4818              3145.1250
 Red. masses --      1.0965                 1.1054                 1.1025
 Frc consts  --      6.3027                 6.4313                 6.4252
 IR Inten    --      1.1547                14.6952                 5.2320

                     91                     92                     93
                      A                      A                      A
 Frequencies --   3145.6148              3174.8301              3180.3191
 Red. masses --      1.1002                 1.0908                 1.1032
 Frc consts  --      6.4138                 6.4780                 6.5742
 IR Inten    --      2.6126                 1.8399                 1.3416

                     94                     95                     96
                      A                      A                      A
 Frequencies --   3182.6016              3186.8970              3190.9717
 Red. masses --      1.0867                 1.0888                 1.1027
 Frc consts  --      6.4851                 6.5151                 6.6155
 IR Inten    --     22.5936                 7.0646                 6.8739

                     97                     98                     99
                      A                      A                      A
 Frequencies --   3209.5289              3270.7854              3286.3916
 Red. masses --      1.0910                 1.0912                 1.0991
 Frc consts  --      6.6218                 6.8779                 6.9941
 IR Inten    --      3.8708                 0.1892                 1.0131

 - Thermochemistry -
 -------------------
 Temperature   298.150 Kelvin.  Pressure   1.00000 Atm.
 Atom     1 has atomic number  6 and mass  12.00000

 Molecular mass:   251.11576 amu.
 Principal axes and moments of inertia in atomic units:
                           1         2         3
     Eigenvalues --  2701.404796782.709328696.15998
           X            0.99968  -0.02510  -0.00368
           Y            0.02516   0.99956   0.01596
           Z            0.00328  -0.01604   0.99987
 This molecule is an asymmetric top.
 Rotational symmetry number  1.
 Warning -- assumption of classical behavior for rotation
           may cause significant error
 Rotational temperatures (Kelvin)      0.03206     0.01277     0.00996
 Rotational constants (GHZ):           0.66808     0.26608     0.20753
    1 imaginary frequencies ignored.
 Zero-point vibrational energy     751120.1 (Joules/Mol)
                                  179.52202 (Kcal/Mol)
 Warning -- explicit consideration of  28 degrees of freedom as
           vibrations may cause significant error
 Vibrational temperatures:     40.39    53.84    62.03    87.34   105.51
          (Kelvin)            136.07   175.70   207.83   230.36   245.70
                              256.88   287.75   298.04   323.69   339.14
                              386.46   409.47   423.83   470.33   525.24
                              573.31   634.21   676.47   714.62   791.03
                              847.43   877.37   888.39   910.71  1037.48
                             1045.69  1067.24  1121.29  1148.60  1152.47
                             1209.36  1260.33  1321.61  1353.97  1391.22
                             1408.54  1419.47  1453.50  1483.48  1494.15
                             1502.71  1535.39  1542.27  1562.79  1606.65
                             1632.96  1660.99  1665.57  1668.55  1696.79
                             1829.69  1843.30  1853.48  1869.29  1887.67
                             1930.63  1932.75  1975.21  2026.69  2051.87
                             2072.09  2080.57  2089.41  2117.70  2130.71
                             2133.51  2137.68  2147.70  2154.50  2171.07
                             2174.23  2327.06  2335.77  2559.99  2650.23
                             2655.91  4377.31  4390.25  4422.10  4424.02
                             4485.75  4494.01  4521.32  4525.13  4525.83
                             4567.87  4575.76  4579.05  4585.23  4591.09
                             4617.79  4705.92  4728.38

 Zero-point correction=                           0.286087 (Hartree/Particle)
 Thermal correction to Energy=                    0.304485
 Thermal correction to Enthalpy=                  0.305429
 Thermal correction to Gibbs Free Energy=         0.238203
 Sum of electronic and zero-point Energies=           -861.005764
 Sum of electronic and thermal Energies=              -860.987366
 Sum of electronic and thermal Enthalpies=            -860.986421
 Sum of electronic and thermal Free Energies=         -861.053648

                     E (Thermal)             CV                S
                      KCal/Mol        Cal/Mol-Kelvin    Cal/Mol-Kelvin
 Total                  191.067             67.089            141.490
 Electronic               0.000              0.000              0.000
 Translational            0.889              2.981             42.463
 Rotational               0.889              2.981             33.432
 Vibrational            189.290             61.128             65.595
 Vibration     1          0.593              1.984              5.961
 Vibration     2          0.594              1.982              5.391
 Vibration     3          0.595              1.980              5.111
 Vibration     4          0.597              1.973              4.434
 Vibration     5          0.599              1.967              4.062
 Vibration     6          0.603              1.953              3.563
 Vibration     7          0.610              1.931              3.067
 Vibration     8          0.616              1.909              2.744
 Vibration     9          0.622              1.891              2.548
 Vibration    10          0.626              1.878              2.427
 Vibration    11          0.629              1.869              2.344
 Vibration    12          0.638              1.840              2.133
 Vibration    13          0.641              1.830              2.069
 Vibration    14          0.650              1.803              1.919
 Vibration    15          0.655              1.786              1.835
 Vibration    16          0.673              1.731              1.605
 Vibration    17          0.683              1.702              1.506
 Vibration    18          0.689              1.684              1.448
 Vibration    19          0.711              1.622              1.275
 Vibration    20          0.738              1.544              1.100
 Vibration    21          0.765              1.473              0.968
 Vibration    22          0.801              1.381              0.824
 Vibration    23          0.827              1.316              0.737
 Vibration    24          0.852              1.257              0.666
 Vibration    25          0.905              1.140              0.545
 Vibration    26          0.946              1.055              0.469
 Vibration    27          0.969              1.011              0.433
 Vibration    28          0.977              0.995              0.421

 Normal termination of Gaussian 09 at Fri Feb 25 02:11:49 2022.
