 Gaussian 09, Revision D.01,
 Gaussian 09:  ES64L-G09RevD.01 24-Apr-2013

 ----------------------------------------------------------------------
 #n wB97XD/Def2TZVP scrf(smd,solvent=toluene) opt=(calcfc,ts,noeigentes
 t)
 ----------------------------------------------------------------------

 ----------------------------
 ts diels alder toluene - opt
 ----------------------------
 Symbolic Z-matrix:
 Charge =  0 Multiplicity = 1

 SCF Done:  E(RwB97XD) =  -861.291847948     A.U. after   15 cycles

  Exact polarizability:   0.000   0.000   0.000   0.000   0.000   0.000
 Approx polarizability: 234.948  -8.593 214.372  -6.447  -2.735 166.219

 SCF Done:  E(RwB97XD) =  -861.291850724     A.U. after   10 cycles
 SCF Done:  E(RwB97XD) =  -861.291850776     A.U. after    7 cycles
 Optimization completed.
    -- Stationary point found.

                         Standard orientation:
 ---------------------------------------------------------------------
 Center     Atomic      Atomic             Coordinates (Angstroms)
 Number     Number       Type             X           Y           Z
 ---------------------------------------------------------------------
      1          6           0       -2.632086   -0.658539    0.559100
      2          6           0       -1.629188    0.301968    1.083188
      3          6           0       -0.374246   -0.250466    0.888435
      4          6           0       -0.566397   -1.575163    0.239233
      5          1           0       -1.905571    0.997246    1.857901
      6          1           0        0.494679   -0.074476    1.501462
      7          6           0       -2.510303   -2.844212   -0.674186
      8          1           0       -2.040202   -3.023970   -1.640527
      9          1           0       -2.394308   -3.735474   -0.056033
     10          1           0       -3.569845   -2.643671   -0.817066
     11          7           0       -1.916774   -1.694142   -0.038710
     12          8           0        0.260498   -2.420090   -0.018362
     13          8           0       -3.836453   -0.606432    0.618843
     14          6           0       -0.816326    2.611920   -0.297310
     15          1           0       -0.869167    3.586355    0.178314
     16          6           0        0.445104    2.046529   -0.473307
     17          1           0        1.305392    2.599095   -0.114307
     18          6           0       -1.993473    1.921627   -0.485465
     19          1           0       -2.002106    1.098868   -1.192623
     20          6           0       -3.328151    2.523884   -0.192802
     21          1           0       -4.032001    1.767374    0.156994
     22          1           0       -3.257112    3.312876    0.557183
     23          1           0       -3.749922    2.956703   -1.105023
     24          6           0        0.625415    0.733180   -0.846898
     25          1           0       -0.113056    0.257868   -1.483111
     26          6           0        1.974368    0.096959   -0.948213
     27          1           0        2.387313    0.273649   -1.947723
     28          1           0        1.874222   -0.979603   -0.803712
     29          6           0        4.032857    0.124838    0.319669
     30          6           0        4.420754   -1.143817   -0.385293
     31          1           0        4.336853   -1.044433   -1.468256
     32          1           0        5.445975   -1.385609   -0.120220
     33          1           0        3.767418   -1.961937   -0.074379
     34          8           0        2.835180    0.668061    0.031935
     35          8           0        4.721885    0.674196    1.133234
 ---------------------------------------------------------------------

 The electronic state is 1-A.
 Alpha  occ. eigenvalues --  -19.29621 -19.24129 -19.23904 -19.22787 -14.48010
 Alpha  occ. eigenvalues --  -10.41589 -10.40489 -10.40406 -10.35082 -10.31845
 Alpha  occ. eigenvalues --  -10.31693 -10.31674 -10.31115 -10.30774 -10.29311
 Alpha  occ. eigenvalues --  -10.29141 -10.29099 -10.27765  -1.21048  -1.17732
 Alpha  occ. eigenvalues --   -1.15600  -1.12412  -1.06328  -0.94843  -0.91584
 Alpha  occ. eigenvalues --   -0.89280  -0.84967  -0.83417  -0.80533  -0.77450
 Alpha  occ. eigenvalues --   -0.75811  -0.71422  -0.70120  -0.67429  -0.64625
 Alpha  occ. eigenvalues --   -0.62227  -0.59969  -0.59598  -0.59076  -0.58097
 Alpha  occ. eigenvalues --   -0.57947  -0.55494  -0.55289  -0.53689  -0.53032
 Alpha  occ. eigenvalues --   -0.52910  -0.51950  -0.51268  -0.51184  -0.49569
 Alpha  occ. eigenvalues --   -0.49166  -0.48873  -0.48334  -0.47906  -0.47462
 Alpha  occ. eigenvalues --   -0.46957  -0.44896  -0.44323  -0.43586  -0.43216
 Alpha  occ. eigenvalues --   -0.38719  -0.38003  -0.36015  -0.35940  -0.35346
 Alpha  occ. eigenvalues --   -0.32477  -0.30989
 Alpha virt. eigenvalues --   -0.00663   0.02342   0.08402   0.10392   0.10628
 Alpha virt. eigenvalues --    0.11796   0.12601   0.12765   0.14532   0.15046
 Alpha virt. eigenvalues --    0.15570   0.16543   0.16854   0.17377   0.18246

 Mulliken charges:
               1
     1  C    0.234241
     2  C   -0.169869
     3  C   -0.129519
     4  C    0.238826
     5  H    0.175755
     6  H    0.177595
     7  C   -0.294750
     8  H    0.145451
     9  H    0.150011
    10  H    0.162098
    11  N   -0.084034
    12  O   -0.398073
    13  O   -0.385406
    14  C   -0.141517
    15  H    0.142125
    16  C   -0.147119
    17  H    0.162152
    18  C   -0.089739
    19  H    0.143676
    20  C   -0.370051
    21  H    0.160043
    22  H    0.125071
    23  H    0.142006
    24  C   -0.122189
    25  H    0.158374
    26  C   -0.088261
    27  H    0.148005
    28  H    0.163723
    29  C    0.319944
    30  C   -0.406796
    31  H    0.149524
    32  H    0.160507
    33  H    0.173339
    34  O   -0.246810
    35  O   -0.358332
 Sum of Mulliken charges =   0.00000

 Dipole moment (field-independent basis, Debye):
    X=             -1.6435    Y=             -0.0130    Z=             -3.6630  Tot=              4.0148
 Quadrupole moment (field-independent basis, Debye-Ang):
   XX=           -128.8995   YY=           -103.8609   ZZ=           -104.3096
   XY=            -10.3826   XZ=             -8.9670   YZ=              1.7702

 Normal termination of Gaussian 09 at Wed Feb 23 19:24:56 2022.
