 Gaussian 09, Revision D.01,
 Gaussian 09:  ES64L-G09RevD.01 24-Apr-2013

 ----------------------------------------------------------------------
 # opt freq b3lyp/6-31+g(d,p) scrf=(cpcm,solvent=water) geom=connectivi
 ty empiricaldispersion=gd3
 ----------------------------------------------------------------------

 -------------------
 Title Card Required
 -------------------
 Symbolic Z-matrix:
 Charge =  0 Multiplicity = 1

 SCF Done:  E(RB3LYP) =  -861.398569066     A.U. after   15 cycles
 SCF Done:  E(RB3LYP) =  -861.409374845     A.U. after   14 cycles
 SCF Done:  E(RB3LYP) =  -861.411656807     A.U. after   14 cycles
 SCF Done:  E(RB3LYP) =  -861.412505600     A.U. after   13 cycles
 SCF Done:  E(RB3LYP) =  -861.412200573     A.U. after   13 cycles
 SCF Done:  E(RB3LYP) =  -861.412750971     A.U. after   12 cycles
 SCF Done:  E(RB3LYP) =  -861.412778568     A.U. after   11 cycles
 SCF Done:  E(RB3LYP) =  -861.412768782     A.U. after   10 cycles
 SCF Done:  E(RB3LYP) =  -861.412783895     A.U. after   10 cycles
 SCF Done:  E(RB3LYP) =  -861.412784497     A.U. after    9 cycles
 SCF Done:  E(RB3LYP) =  -861.413044836     A.U. after   11 cycles
 SCF Done:  E(RB3LYP) =  -861.413089475     A.U. after    8 cycles
 SCF Done:  E(RB3LYP) =  -861.413091514     A.U. after   11 cycles
 SCF Done:  E(RB3LYP) =  -861.413092124     A.U. after   10 cycles
 SCF Done:  E(RB3LYP) =  -861.413092361     A.U. after    9 cycles
 SCF Done:  E(RB3LYP) =  -861.413092555     A.U. after    9 cycles
 SCF Done:  E(RB3LYP) =  -861.413091165     A.U. after   10 cycles
 SCF Done:  E(RB3LYP) =  -861.413092645     A.U. after   10 cycles
 SCF Done:  E(RB3LYP) =  -861.413092618     A.U. after    8 cycles
 Optimization completed.
    -- Stationary point found.
 Normal termination of Gaussian 09 at Thu Aug 27 18:55:47 2020.

 ----------------------------------------------------------------------
 #N Geom=AllCheck Guess=TCheck SCRF=Check GenChk RB3LYP/6-31+G(d,p) Fre
 q
 ----------------------------------------------------------------------

 Structure from the checkpoint file:  "b3lyp_cyclohexene_pm6_cpcmtoluene_2_water.chk"
 -------------------
 Title Card Required
 -------------------
 Charge =  0 Multiplicity = 1

                         Standard orientation:
 ---------------------------------------------------------------------
 Center     Atomic      Atomic             Coordinates (Angstroms)
 Number     Number       Type             X           Y           Z
 ---------------------------------------------------------------------
      1          6           0       -2.814368    0.067032    0.104044
      2          6           0       -1.712847    0.827064   -0.629110
      3          6           0       -0.603562   -0.235069   -0.842443
      4          6           0       -1.270033   -1.552629   -0.458807
      5          1           0       -2.150416    1.088792   -1.600287
      6          1           0       -0.339640   -0.316539   -1.901179
      7          6           0       -3.403439   -2.300057    0.644120
      8          1           0       -3.573672   -2.110376    1.706146
      9          1           0       -4.359031   -2.272251    0.116098
     10          1           0       -2.931071   -3.272350    0.510197
     11          7           0       -2.509442   -1.284943    0.100043
     12          8           0       -0.793815   -2.670832   -0.584824
     13          8           0       -3.831935    0.531047    0.596140
     14          6           0        0.704730   -0.069227   -0.004461
     15          1           0        0.995268   -1.058915    0.362329
     16          6           0       -1.334297    2.130773    0.105518
     17          1           0       -2.259170    2.520913    0.545808
     18          6           0       -0.354978    1.851292    1.219514
     19          1           0       -0.382020    2.515441    2.080811
     20          6           0        0.544863    0.862363    1.173136
     21          1           0        1.242787    0.725391    1.994903
     22          6           0       -0.804955    3.208417   -0.862807
     23          1           0       -1.571296    3.471071   -1.600166
     24          1           0       -0.532021    4.115409   -0.314371
     25          1           0        0.082652    2.863705   -1.401209
     26          6           0        1.850727    0.382326   -0.930137
     27          1           0        2.002417   -0.344147   -1.732556
     28          1           0        1.654888    1.367072   -1.354955
     29          6           0        3.816977   -0.561578    0.062259
     30          6           0        5.049316   -0.228813    0.858800
     31          1           0        4.752990    0.144513    1.844186
     32          1           0        5.665633   -1.119876    0.973862
     33          1           0        5.617185    0.562698    0.362334
     34          8           0        3.493436   -1.678011   -0.307774
     35          8           0        3.087541    0.545632   -0.194794
 ---------------------------------------------------------------------

 SCF Done:  E(RB3LYP) =  -861.413092618     A.U. after    1 cycles

 The electronic state is 1-A.
 Alpha  occ. eigenvalues --  -19.21153 -19.16209 -19.16185 -19.16020 -14.40921
 Alpha  occ. eigenvalues --  -10.33663 -10.32260 -10.32033 -10.25625 -10.23183
 Alpha  occ. eigenvalues --  -10.22640 -10.22142 -10.21882 -10.21016 -10.20090
 Alpha  occ. eigenvalues --  -10.19818 -10.19725 -10.18572  -1.11904  -1.08579
 Alpha  occ. eigenvalues --   -1.06506  -1.03256  -0.97451  -0.86973  -0.80776
 Alpha  occ. eigenvalues --   -0.79747  -0.76748  -0.73465  -0.71186  -0.70056
 Alpha  occ. eigenvalues --   -0.66262  -0.62897  -0.62100  -0.57602  -0.56073
 Alpha  occ. eigenvalues --   -0.52843  -0.51652  -0.51014  -0.50005  -0.49700
 Alpha  occ. eigenvalues --   -0.48672  -0.48270  -0.47523  -0.45760  -0.45058
 Alpha  occ. eigenvalues --   -0.44243  -0.43613  -0.43181  -0.42733  -0.41836
 Alpha  occ. eigenvalues --   -0.41272  -0.41066  -0.40581  -0.39191  -0.38553
 Alpha  occ. eigenvalues --   -0.38359  -0.37129  -0.36825  -0.35281  -0.34285
 Alpha  occ. eigenvalues --   -0.32435  -0.31898  -0.30272  -0.29488  -0.29452
 Alpha  occ. eigenvalues --   -0.27816  -0.26037
 Alpha virt. eigenvalues --   -0.04050  -0.01276  -0.00770  -0.00301   0.00343
 Alpha virt. eigenvalues --    0.01020   0.01680   0.02007   0.02762   0.03188
 Alpha virt. eigenvalues --    0.03691   0.04433   0.04478   0.05431   0.05503

 Mulliken charges:
               1
     1  C    0.229275
     2  C   -0.058660
     3  C   -0.208682
     4  C    0.174649
     5  H    0.190324
     6  H    0.182544
     7  C   -0.240242
     8  H    0.178601
     9  H    0.179316
    10  H    0.182595
    11  N   -0.089003
    12  O   -0.542890
    13  O   -0.553222
    14  C    0.030382
    15  H    0.178851
    16  C    0.152513
    17  H    0.160423
    18  C   -0.065859
    19  H    0.141075
    20  C   -0.198220
    21  H    0.141272
    22  C   -0.549767
    23  H    0.156438
    24  H    0.157302
    25  H    0.144294
    26  C   -0.202182
    27  H    0.172472
    28  H    0.158259
    29  C    0.506390
    30  C   -0.517194
    31  H    0.195191
    32  H    0.182486
    33  H    0.192265
    34  O   -0.493262
    35  O   -0.267736
 Sum of Mulliken charges =   0.00000

 Dipole moment (field-independent basis, Debye):
    X=              1.0521    Y=              4.2915    Z=             -0.3743  Tot=              4.4345
 Quadrupole moment (field-independent basis, Debye-Ang):
   XX=           -108.6778   YY=           -118.0290   ZZ=           -100.8083
   XY=             15.0371   XZ=              9.5944   YZ=             -6.8905

  Exact polarizability: 237.161 -22.824 238.178  -5.191   5.960 178.908
 Approx polarizability: 245.314 -33.664 262.493  -9.098  10.735 196.824

                      1                      2                      3
                      A                      A                      A
 Frequencies --     15.0602                34.1920                40.0395
 Red. masses --      7.1503                 3.6312                 1.0712
 Frc consts  --      0.0010                 0.0025                 0.0010
 IR Inten    --      0.0978                 2.0851                 0.2501

                      4                      5                      6
                      A                      A                      A
 Frequencies --     43.4450                62.3294                74.5259
 Red. masses --      1.4387                 4.2346                 2.8470
 Frc consts  --      0.0016                 0.0097                 0.0093
 IR Inten    --      3.2699                 1.1491                 1.2600

                      7                      8                      9
                      A                      A                      A
 Frequencies --     90.6227               104.9969               155.4348
 Red. masses --      3.1406                 4.4697                 3.5768
 Frc consts  --      0.0152                 0.0290                 0.0509
 IR Inten    --      3.5515                 6.6869                 0.5496

                     10                     11                     12
                      A                      A                      A
 Frequencies --    160.5912               198.3436               219.9313
 Red. masses --      6.3430                 2.2455                 3.6157
 Frc consts  --      0.0964                 0.0520                 0.1030
 IR Inten    --     18.4222                 3.8758                 0.6451

                     13                     14                     15
                      A                      A                      A
 Frequencies --    241.7033               248.1820               276.0698
 Red. masses --      2.2873                 2.8415                 2.3164
 Frc consts  --      0.0787                 0.1031                 0.1040
 IR Inten    --      2.7743                 4.0876                 1.9794

                     16                     17                     18
                      A                      A                      A
 Frequencies --    296.2059               315.8523               319.7619
 Red. masses --      3.1362                 4.1027                 3.1875
 Frc consts  --      0.1621                 0.2412                 0.1920
 IR Inten    --      7.4848                19.0793                 6.6663

                     19                     20                     21
                      A                      A                      A
 Frequencies --    395.2277               432.0593               434.2044
 Red. masses --      5.1714                 3.6410                 4.0072
 Frc consts  --      0.4759                 0.4005                 0.4451
 IR Inten    --     37.9220                12.8371                12.5154

                     22                     23                     24
                      A                      A                      A
 Frequencies --    482.3148               531.3966               576.7314
 Red. masses --      4.2371                 4.8032                 2.8921
 Frc consts  --      0.5807                 0.7991                 0.5668
 IR Inten    --      6.0051                 7.6233                 0.8571

                     25                     26                     27
                      A                      A                      A
 Frequencies --    591.4111               607.7458               611.8061
 Red. masses --      4.2381                 2.7789                 8.2593
 Frc consts  --      0.8734                 0.6047                 1.8215
 IR Inten    --      7.5608                 9.1385                 7.8431

                     28                     29                     30
                      A                      A                      A
 Frequencies --    638.0939               656.0253               702.0626
 Red. masses --      4.7836                 5.3481                 4.0278
 Frc consts  --      1.1476                 1.3561                 1.1697
 IR Inten    --      5.4591                 4.2039                11.9170

                     31                     32                     33
                      A                      A                      A
 Frequencies --    753.7053               783.3113               795.4688
 Red. masses --      1.5131                 6.0183                 5.1921
 Frc consts  --      0.5064                 2.1757                 1.9357
 IR Inten    --    101.3394                20.9848                12.2408

                     34                     35                     36
                      A                      A                      A
 Frequencies --    809.3916               836.4432               873.1757
 Red. masses --      3.7263                 2.6962                 3.5898
 Frc consts  --      1.4383                 1.1114                 1.6126
 IR Inten    --      3.8777                62.4917                 2.4309

                     37                     38                     39
                      A                      A                      A
 Frequencies --    917.1684               925.5426               965.3536
 Red. masses --      2.3481                 3.7224                 2.2054
 Frc consts  --      1.1638                 1.8787                 1.2109
 IR Inten    --      5.7315                 6.2026                45.4182

                     40                     41                     42
                      A                      A                      A
 Frequencies --    995.2805               998.1274              1006.2395
 Red. masses --      2.2862                 1.6212                 1.4810
 Frc consts  --      1.3343                 0.9516                 0.8835
 IR Inten    --      8.2262                45.3354                29.8208

                     43                     44                     45
                      A                      A                      A
 Frequencies --   1043.8116              1050.7023              1057.4205
 Red. masses --      2.1898                 3.1958                 2.4780
 Frc consts  --      1.4057                 2.0787                 1.6325
 IR Inten    --      9.4511                21.9329               116.9555

                     46                     47                     48
                      A                      A                      A
 Frequencies --   1062.6112              1075.5127              1089.1908
 Red. masses --      1.8328                 3.2568                 3.0459
 Frc consts  --      1.2193                 2.2196                 2.1290
 IR Inten    --     26.2189                19.1729                45.4121

                     49                     50                     51
                      A                      A                      A
 Frequencies --   1098.2804              1114.5498              1146.1136
 Red. masses --      2.3476                 2.2200                 2.3567
 Frc consts  --      1.6684                 1.6248                 1.8239
 IR Inten    --     26.4094                35.3923               176.8887

                     52                     53                     54
                      A                      A                      A
 Frequencies --   1149.8631              1161.3022              1214.8822
 Red. masses --      1.3322                 1.6386                 1.1065
 Frc consts  --      1.0378                 1.3020                 0.9622
 IR Inten    --      3.9559                14.4150                 4.3172

                     55                     56                     57
                      A                      A                      A
 Frequencies --   1248.5609              1258.8211              1281.1601
 Red. masses --      2.5877                 1.4838                 1.4456
 Frc consts  --      2.3767                 1.3853                 1.3980
 IR Inten    --    457.0884                90.0643                53.2813

                     58                     59                     60
                      A                      A                      A
 Frequencies --   1294.0553              1305.3968              1315.6218
 Red. masses --      1.4682                 1.3839                 2.6672
 Frc consts  --      1.4485                 1.3894                 2.7200
 IR Inten    --      4.0715                55.3129               210.9011

                     61                     62                     63
                      A                      A                      A
 Frequencies --   1321.4019              1357.8662              1365.8222
 Red. masses --      1.3973                 1.3121                 1.2506
 Frc consts  --      1.4375                 1.4254                 1.3745
 IR Inten    --     90.8269                 9.8968                 8.1918

                     64                     65                     66
                      A                      A                      A
 Frequencies --   1375.2831              1388.8825              1398.3919
 Red. masses --      1.4334                 1.4449                 1.2969
 Frc consts  --      1.5974                 1.6422                 1.4942
 IR Inten    --      5.3653                 0.9873                56.3649

                     67                     68                     69
                      A                      A                      A
 Frequencies --   1405.3563              1412.0152              1423.7194
 Red. masses --      1.3434                 2.6975                 1.3268
 Frc consts  --      1.5633                 3.1687                 1.5846
 IR Inten    --     18.6397               205.7048                 6.1605

                     70                     71                     72
                      A                      A                      A
 Frequencies --   1431.7386              1461.1358              1464.0816
 Red. masses --      1.5179                 1.0555                 1.5609
 Frc consts  --      1.8332                 1.3277                 1.9713
 IR Inten    --      2.0419                34.6343               144.6596

                     73                     74                     75
                      A                      A                      A
 Frequencies --   1467.2053              1482.0656              1486.8683
 Red. masses --      1.0468                 1.0386                 1.0884
 Frc consts  --      1.3277                 1.3441                 1.4177
 IR Inten    --     15.8250                18.9076                 9.2179

                     76                     77                     78
                      A                      A                      A
 Frequencies --   1493.7705              1495.6153              1499.0584
 Red. masses --      1.0629                 1.0603                 1.1144
 Frc consts  --      1.3973                 1.3975                 1.4754
 IR Inten    --     11.0031                15.8667                45.0264

                     79                     80                     81
                      A                      A                      A
 Frequencies --   1714.7453              1716.0342              1753.9765
 Red. masses --     12.0401                 6.7589                10.3522
 Frc consts  --     20.8583                11.7267                18.7642
 IR Inten    --   1406.2968                87.3607               515.0429

                     82                     83                     84
                      A                      A                      A
 Frequencies --   1807.6024              3040.3888              3053.4657
 Red. masses --     11.8607                 1.0355                 1.0839
 Frc consts  --     22.8332                 5.6400                 5.9542
 IR Inten    --     84.2076                53.2538                 6.2697

                     85                     86                     87
                      A                      A                      A
 Frequencies --   3056.4322              3063.3733              3070.5114
 Red. masses --      1.0842                 1.0372                 1.0327
 Frc consts  --      5.9676                 5.7345                 5.7364
 IR Inten    --     26.5880                 1.5627                34.3799

                     88                     89                     90
                      A                      A                      A
 Frequencies --   3073.4044              3082.9753              3086.6874
 Red. masses --      1.0831                 1.0807                 1.0643
 Frc consts  --      6.0276                 6.0521                 5.9745
 IR Inten    --      3.4707                 5.4620                51.1451

                     91                     92                     93
                      A                      A                      A
 Frequencies --   3111.1004              3122.2459              3132.5100
 Red. masses --      1.1026                 1.1019                 1.1005
 Frc consts  --      6.2879                 6.3286                 6.3624
 IR Inten    --     47.0795                60.7616                 4.3332

                     94                     95                     96
                      A                      A                      A
 Frequencies --   3144.9887              3156.2079              3163.7895
 Red. masses --      1.1063                 1.1079                 1.0859
 Frc consts  --      6.4473                 6.5028                 6.4041
 IR Inten    --     14.9611                15.5503                13.7268

                     97                     98                     99
                      A                      A                      A
 Frequencies --   3177.1332              3181.0761              3188.1845
 Red. masses --      1.1044                 1.1048                 1.0966
 Frc consts  --      6.5680                 6.5868                 6.5671
 IR Inten    --      9.7562                 1.5880                34.9377

 - Thermochemistry -
 -------------------
 Temperature   298.150 Kelvin.  Pressure   1.00000 Atm.
 Atom     1 has atomic number  6 and mass  12.00000

 Molecular mass:   251.11576 amu.
 Principal axes and moments of inertia in atomic units:
                           1         2         3
     Eigenvalues --  2618.696146480.435008178.00674
           X            0.99994   0.00919   0.00620
           Y           -0.00903   0.99966  -0.02431
           Z           -0.00642   0.02425   0.99969
 This molecule is an asymmetric top.
 Rotational symmetry number  1.
 Warning -- assumption of classical behavior for rotation
           may cause significant error
 Rotational temperatures (Kelvin)      0.03308     0.01337     0.01059
 Rotational constants (GHZ):           0.68918     0.27849     0.22068
 Zero-point vibrational energy     758495.5 (Joules/Mol)
                                  181.28477 (Kcal/Mol)
 Warning -- explicit consideration of  27 degrees of freedom as
           vibrations may cause significant error
 Vibrational temperatures:     21.67    49.19    57.61    62.51    89.68
          (Kelvin)            107.23   130.39   151.07   223.64   231.05
                              285.37   316.43   347.76   357.08   397.20
                              426.17   454.44   460.07   568.64   621.64
                              624.72   693.94   764.56   829.79   850.91
                              874.41   880.25   918.07   943.87  1010.11
                             1084.41  1127.01  1144.50  1164.53  1203.45
                             1256.30  1319.60  1331.65  1388.93  1431.98
                             1436.08  1447.75  1501.81  1511.72  1521.39
                             1528.86  1547.42  1567.10  1580.18  1603.59
                             1649.00  1654.39  1670.85  1747.94  1796.40
                             1811.16  1843.30  1861.85  1878.17  1892.88
                             1901.20  1953.66  1965.11  1978.72  1998.29
                             2011.97  2021.99  2031.57  2048.41  2059.95
                             2102.25  2106.48  2110.98  2132.36  2139.27
                             2149.20  2151.85  2156.81  2467.13  2468.99
                             2523.58  2600.73  4374.44  4393.25  4397.52
                             4407.51  4417.78  4421.94  4435.71  4441.05
                             4476.17  4492.21  4506.98  4524.93  4541.07
                             4551.98  4571.18  4576.85  4587.08

 Zero-point correction=                           0.288896 (Hartree/Particle)
 Thermal correction to Energy=                    0.306848
 Thermal correction to Enthalpy=                  0.307792
 Thermal correction to Gibbs Free Energy=         0.240010
 Sum of electronic and zero-point Energies=           -861.124197
 Sum of electronic and thermal Energies=              -861.106245
 Sum of electronic and thermal Enthalpies=            -861.105300
 Sum of electronic and thermal Free Energies=         -861.173082

                     E (Thermal)             CV                S
                      KCal/Mol        Cal/Mol-Kelvin    Cal/Mol-Kelvin
 Total                  192.550             65.461            142.659
 Electronic               0.000              0.000              0.000
 Translational            0.889              2.981             42.463
 Rotational               0.889              2.981             33.295
 Vibrational            190.773             59.500             66.902
 Vibration     1          0.593              1.986              7.198
 Vibration     2          0.594              1.983              5.570
 Vibration     3          0.594              1.981              5.257
 Vibration     4          0.595              1.980              5.095
 Vibration     5          0.597              1.972              4.382
 Vibration     6          0.599              1.966              4.030
 Vibration     7          0.602              1.956              3.647
 Vibration     8          0.605              1.945              3.359
 Vibration     9          0.620              1.897              2.605
 Vibration    10          0.622              1.891              2.543
 Vibration    11          0.637              1.842              2.148
 Vibration    12          0.647              1.811              1.960
 Vibration    13          0.658              1.776              1.790
 Vibration    14          0.662              1.766              1.743
 Vibration    15          0.678              1.718              1.558
 Vibration    16          0.690              1.681              1.438
 Vibration    17          0.703              1.643              1.331
 Vibration    18          0.706              1.636              1.311
 Vibration    19          0.762              1.480              0.980
 Vibration    20          0.793              1.400              0.852
 Vibration    21          0.795              1.396              0.845
 Vibration    22          0.839              1.289              0.704
 Vibration    23          0.886              1.181              0.584
 Vibration    24          0.933              1.082              0.491
 Vibration    25          0.949              1.050              0.465
 Vibration    26          0.967              1.015              0.437
 Vibration    27          0.971              1.007              0.430

 Optimization completed.
    -- Stationary point found.
 Normal termination of Gaussian 09 at Thu Aug 27 19:40:51 2020.
