 Gaussian 09, Revision D.01,
 Gaussian 09:  ES64L-G09RevD.01 24-Apr-2013

 ----------------------------------------------------------------------
 # opt freq b3lyp/6-31+g(d,p) scrf=(cpcm,solvent=water) geom=connectivi
 ty empiricaldispersion=gd3
 ----------------------------------------------------------------------

 -------------------
 Title Card Required
 -------------------
 Symbolic Z-matrix:
 Charge =  0 Multiplicity = 1

 SCF Done:  E(RB3LYP) =  -462.548120377     A.U. after   14 cycles
 SCF Done:  E(RB3LYP) =  -462.552493484     A.U. after   11 cycles
 SCF Done:  E(RB3LYP) =  -462.553284053     A.U. after   11 cycles
 SCF Done:  E(RB3LYP) =  -462.553380981     A.U. after   11 cycles
 SCF Done:  E(RB3LYP) =  -462.553384832     A.U. after   11 cycles
 SCF Done:  E(RB3LYP) =  -462.553417216     A.U. after   10 cycles
 SCF Done:  E(RB3LYP) =  -462.553429276     A.U. after   10 cycles
 SCF Done:  E(RB3LYP) =  -462.553430739     A.U. after   10 cycles
 SCF Done:  E(RB3LYP) =  -462.553430475     A.U. after    9 cycles
 SCF Done:  E(RB3LYP) =  -462.553430396     A.U. after    8 cycles
 SCF Done:  E(RB3LYP) =  -462.553431778     A.U. after    6 cycles
 SCF Done:  E(RB3LYP) =  -462.553270668     A.U. after   11 cycles
 SCF Done:  E(RB3LYP) =  -462.553431774     A.U. after    4 cycles
 SCF Done:  E(RB3LYP) =  -462.553431246     A.U. after    9 cycles
 SCF Done:  E(RB3LYP) =  -462.553430360     A.U. after    8 cycles
 SCF Done:  E(RB3LYP) =  -462.553431860     A.U. after    9 cycles
 SCF Done:  E(RB3LYP) =  -462.553432124     A.U. after    9 cycles
 SCF Done:  E(RB3LYP) =  -462.553432061     A.U. after    7 cycles
 SCF Done:  E(RB3LYP) =  -462.553432082     A.U. after    7 cycles
 Optimization completed.
    -- Stationary point found.
 Normal termination of Gaussian 09 at Thu Aug 27 17:08:35 2020.

 ----------------------------------------------------------------------
 #N Geom=AllCheck Guess=TCheck SCRF=Check GenChk RB3LYP/6-31+G(d,p) Fre
 q
 ----------------------------------------------------------------------

 Structure from the checkpoint file:  "b3lyp_diene_pm6_cpcmtoluene_water.chk"
 -------------------
 Title Card Required
 -------------------
 Charge =  0 Multiplicity = 1

                         Standard orientation:
 ---------------------------------------------------------------------
 Center     Atomic      Atomic             Coordinates (Angstroms)
 Number     Number       Type             X           Y           Z
 ---------------------------------------------------------------------
      1          6           0       -2.610491    0.636979   -0.257886
      2          1           0       -2.935193    1.561211   -0.738037
      3          6           0       -1.155783    0.433999   -0.192403
      4          1           0       -0.547029    1.335836   -0.187883
      5          6           0       -3.549531   -0.186628    0.241578
      6          1           0       -3.234297   -1.084390    0.774824
      7          6           0       -5.030214    0.034912    0.136497
      8          1           0       -5.495001    0.074944    1.130068
      9          1           0       -5.264619    0.964671   -0.391917
     10          1           0       -5.512294   -0.793746   -0.398785
     11          6           0       -0.533066   -0.755500   -0.161587
     12          1           0       -1.106929   -1.679334   -0.219347
     13          6           0        0.944945   -0.978097   -0.062517
     14          1           0        1.304352   -1.523206   -0.943915
     15          1           0        1.175090   -1.583873    0.823388
     16          6           0        2.972547    0.380054    0.073872
     17          6           0        3.783511   -0.889104   -0.008026
     18          1           0        3.615860   -1.389951   -0.966830
     19          1           0        4.838427   -0.636189    0.086355
     20          1           0        3.502126   -1.588885    0.784125
     21          8           0        1.624713    0.293982    0.035391
     22          8           0        3.466286    1.491421    0.168457
 ---------------------------------------------------------------------

 SCF Done:  E(RB3LYP) =  -462.553432082     A.U. after    1 cycles

 The electronic state is 1-A.
 Alpha  occ. eigenvalues --  -19.21142 -19.15622 -10.33895 -10.26359 -10.20583
 Alpha  occ. eigenvalues --  -10.20304 -10.19893 -10.19840 -10.19408 -10.18585
 Alpha  occ. eigenvalues --   -1.11648  -1.03314  -0.82340  -0.78671  -0.75871
 Alpha  occ. eigenvalues --   -0.73048  -0.66879  -0.61211  -0.57865  -0.52905
 Alpha  occ. eigenvalues --   -0.51245  -0.50527  -0.49360  -0.46762  -0.44581
 Alpha  occ. eigenvalues --   -0.44288  -0.41905  -0.41448  -0.41083  -0.39555
 Alpha  occ. eigenvalues --   -0.39443  -0.36361  -0.35805  -0.35026  -0.31924
 Alpha  occ. eigenvalues --   -0.30492  -0.29304  -0.22966
 Alpha virt. eigenvalues --   -0.03524  -0.01155   0.00421   0.01692   0.01778
 Alpha virt. eigenvalues --    0.03256   0.03557   0.04204   0.04642   0.05314
 Alpha virt. eigenvalues --    0.05726   0.06382   0.06582   0.07341   0.07887

 Mulliken charges:
               1
     1  C   -0.527140
     2  H    0.131671
     3  C    0.190324
     4  H    0.147362
     5  C    0.172607
     6  H    0.134467
     7  C   -0.774990
     8  H    0.162733
     9  H    0.157316
    10  H    0.164008
    11  C    0.109496
    12  H    0.145731
    13  C   -0.336800
    14  H    0.169106
    15  H    0.169960
    16  C    0.533516
    17  C   -0.421474
    18  H    0.195952
    19  H    0.188938
    20  H    0.191340
    21  O   -0.373140
    22  O   -0.530983
 Sum of Mulliken charges =   0.00000

 Dipole moment (field-independent basis, Debye):
    X=             -1.8857    Y=             -6.2093    Z=             -0.3820  Tot=              6.5006
 Quadrupole moment (field-independent basis, Debye-Ang):
   XX=            -59.8240   YY=            -62.4193   ZZ=            -62.1284
   XY=            -16.0997   XZ=             -1.7773   YZ=             -1.9243

  Exact polarizability: 186.296   0.323 136.821  -5.494  -3.773  95.654
 Approx polarizability: 182.602   3.078 157.021  -7.845  -5.398 105.541

                      1                      2                      3
                      A                      A                      A
 Frequencies --     24.1456                42.1135                79.7733
 Red. masses --      3.2587                 2.7427                 3.8300
 Frc consts  --      0.0011                 0.0029                 0.0144
 IR Inten    --      2.6518                 1.6033                 2.9309

                      4                      5                      6
                      A                      A                      A
 Frequencies --    133.6455               135.2488               158.4419
 Red. masses --      2.1594                 3.3400                 1.6522
 Frc consts  --      0.0227                 0.0360                 0.0244
 IR Inten    --      2.5885                 1.3944                 1.9880

                      7                      8                      9
                      A                      A                      A
 Frequencies --    165.4750               196.6572               219.0337
 Red. masses --      1.8559                 1.4327                 1.5752
 Frc consts  --      0.0299                 0.0326                 0.0445
 IR Inten    --      0.8816                 8.9645                 1.2397

                     10                     11                     12
                      A                      A                      A
 Frequencies --    250.5234               340.5638               366.5224
 Red. masses --      3.9549                 2.5984                 3.1053
 Frc consts  --      0.1462                 0.1776                 0.2458
 IR Inten    --      0.8641                 1.4505                 5.1643

                     13                     14                     15
                      A                      A                      A
 Frequencies --    462.0596               526.3960               582.1571
 Red. masses --      3.8761                 4.3165                 2.5500
 Frc consts  --      0.4876                 0.7047                 0.5092
 IR Inten    --      5.3541                13.4585                11.0484

                     16                     17                     18
                      A                      A                      A
 Frequencies --    590.9573               705.4302               770.8877
 Red. masses --      5.0319                 2.9556                 1.7047
 Frc consts  --      1.0354                 0.8666                 0.5969
 IR Inten    --     14.1534                11.4315                 3.9672

                     19                     20                     21
                      A                      A                      A
 Frequencies --    832.6277               849.1583               917.0105
 Red. masses --      2.6341                 2.3893                 1.8056
 Frc consts  --      1.0759                 1.0151                 0.8946
 IR Inten    --      2.8530                 0.7964                13.3069

                     22                     23                     24
                      A                      A                      A
 Frequencies --    985.8461               993.0473               998.8245
 Red. masses --      1.7650                 1.4096                 1.1034
 Frc consts  --      1.0107                 0.8190                 0.6486
 IR Inten    --     40.5127                31.2742               111.2121

                     25                     26                     27
                      A                      A                      A
 Frequencies --   1025.8265              1031.6441              1059.7527
 Red. masses --      1.6903                 1.7154                 1.7924
 Frc consts  --      1.0480                 1.0757                 1.1860
 IR Inten    --     46.5744                31.5784                15.6304

                     28                     29                     30
                      A                      A                      A
 Frequencies --   1062.4622              1077.6821              1115.7077
 Red. masses --      1.5507                 2.9764                 2.8124
 Frc consts  --      1.0313                 2.0367                 2.0627
 IR Inten    --      2.4383                69.0691                64.9149

                     31                     32                     33
                      A                      A                      A
 Frequencies --   1127.2819              1260.8795              1277.4312
 Red. masses --      2.4421                 3.5480                 1.0748
 Frc consts  --      1.8284                 3.3234                 1.0334
 IR Inten    --      9.5987               758.3293                13.3845

                     34                     35                     36
                      A                      A                      A
 Frequencies --   1313.0891              1318.1783              1343.9081
 Red. masses --      1.4835                 1.2993                 1.2882
 Frc consts  --      1.5070                 1.3301                 1.3708
 IR Inten    --     34.2311                 4.2149                 6.3465

                     37                     38                     39
                      A                      A                      A
 Frequencies --   1354.8583              1404.1563              1410.8378
 Red. masses --      1.3183                 1.3277                 1.2611
 Frc consts  --      1.4258                 1.5424                 1.4790
 IR Inten    --      6.4056                81.0018                 1.9053

                     40                     41                     42
                      A                      A                      A
 Frequencies --   1421.6168              1465.0163              1468.7368
 Red. masses --      1.3248                 1.0719                 1.0446
 Frc consts  --      1.5775                 1.3554                 1.3277
 IR Inten    --     32.0692                41.7771                12.9997

                     43                     44                     45
                      A                      A                      A
 Frequencies --   1480.7766              1482.6557              1490.1376
 Red. masses --      1.0455                 1.0604                 1.0814
 Frc consts  --      1.3507                 1.3734                 1.4148
 IR Inten    --     19.7026                21.0922                 2.5989

                     46                     47                     48
                      A                      A                      A
 Frequencies --   1701.3810              1719.7176              1757.0660
 Red. masses --      5.9256                 5.0157                10.7051
 Frc consts  --     10.1062                 8.7397                19.4723
 IR Inten    --     11.8659                 4.7543               661.0231

                     49                     50                     51
                      A                      A                      A
 Frequencies --   3017.8840              3028.8761              3062.5755
 Red. masses --      1.0372                 1.0565                 1.0384
 Frc consts  --      5.5655                 5.7105                 5.7382
 IR Inten    --     56.4101                40.9483                 1.8193

                     52                     53                     54
                      A                      A                      A
 Frequencies --   3066.2493              3070.7856              3105.7770
 Red. masses --      1.0998                 1.1066                 1.1004
 Frc consts  --      6.0920                 6.1483                 6.2538
 IR Inten    --     29.6032                21.5853                24.7414

                     55                     56                     57
                      A                      A                      A
 Frequencies --   3128.9978              3132.5150              3143.6852
 Red. masses --      1.1008                 1.0896                 1.0874
 Frc consts  --      6.3498                 6.2994                 6.3318
 IR Inten    --      4.4091                18.3214                60.5428

                     58                     59                     60
                      A                      A                      A
 Frequencies --   3163.8812              3172.6852              3180.2371
 Red. masses --      1.0908                 1.0869                 1.1029
 Frc consts  --      6.4334                 6.4462                 6.5721
 IR Inten    --      6.3537                24.8894                 8.3731

 - Thermochemistry -
 -------------------
 Temperature   298.150 Kelvin.  Pressure   1.00000 Atm.
 Atom     1 has atomic number  6 and mass  12.00000

 Molecular mass:   140.08373 amu.
 Principal axes and moments of inertia in atomic units:
                           1         2         3
     Eigenvalues --   364.911754462.455074762.93879
           X            0.99988  -0.01571  -0.00175
           Y            0.01567   0.99969  -0.01917
           Z            0.00205   0.01914   0.99981
 This molecule is an asymmetric top.
 Rotational symmetry number  1.
 Rotational temperatures (Kelvin)      0.23736     0.01941     0.01818
 Rotational constants (GHZ):           4.94569     0.40443     0.37891
 Zero-point vibrational energy     483120.8 (Joules/Mol)
                                  115.46865 (Kcal/Mol)
 Warning -- explicit consideration of  16 degrees of freedom as
           vibrations may cause significant error
 Vibrational temperatures:     34.74    60.59   114.78   192.29   194.59
          (Kelvin)            227.96   238.08   282.95   315.14   360.45
                              489.99   527.34   664.80   757.37   837.59
                              850.25  1014.96  1109.13  1197.96  1221.75
                             1319.37  1418.41  1428.77  1437.08  1475.93
                             1484.30  1524.75  1528.64  1550.54  1605.25
                             1621.91  1814.12  1837.94  1889.24  1896.56
                             1933.58  1949.34  2020.27  2029.88  2045.39
                             2107.83  2113.18  2130.50  2133.21  2143.97
                             2447.90  2474.29  2528.02  4342.06  4357.87
                             4406.36  4411.64  4418.17  4468.51  4501.92
                             4506.98  4523.06  4552.11  4564.78  4575.65

 Zero-point correction=                           0.184011 (Hartree/Particle)
 Thermal correction to Energy=                    0.195852
 Thermal correction to Enthalpy=                  0.196796
 Thermal correction to Gibbs Free Energy=         0.144610
 Sum of electronic and zero-point Energies=           -462.369421
 Sum of electronic and thermal Energies=              -462.357580
 Sum of electronic and thermal Enthalpies=            -462.356636
 Sum of electronic and thermal Free Energies=         -462.408822

                     E (Thermal)             CV                S
                      KCal/Mol        Cal/Mol-Kelvin    Cal/Mol-Kelvin
 Total                  122.899             40.850            109.835
 Electronic               0.000              0.000              0.000
 Translational            0.889              2.981             40.723
 Rotational               0.889              2.981             30.429
 Vibrational            121.121             34.888             38.683
 Vibration     1          0.593              1.985              6.260
 Vibration     2          0.595              1.980              5.157
 Vibration     3          0.600              1.963              3.896
 Vibration     4          0.613              1.920              2.893
 Vibration     5          0.613              1.918              2.870
 Vibration     6          0.621              1.893              2.568
 Vibration     7          0.624              1.885              2.486
 Vibration     8          0.636              1.845              2.164
 Vibration     9          0.647              1.812              1.967
 Vibration    10          0.663              1.762              1.727
 Vibration    11          0.720              1.594              1.210
 Vibration    12          0.739              1.541              1.094
 Vibration    13          0.820              1.334              0.760
 Vibration    14          0.881              1.192              0.595
 Vibration    15          0.939              1.070              0.481
 Vibration    16          0.948              1.051              0.465

 Optimization completed.
    -- Stationary point found.
 Normal termination of Gaussian 09 at Thu Aug 27 17:13:22 2020.
