 Gaussian 09, Revision D.01,
 Gaussian 09:  ES64L-G09RevD.01 24-Apr-2013

 ----------------------------------------------------------------------
 # opt freq b3lyp/6-31+g(d,p) scrf=(cpcm,solvent=water) geom=connectivi
 ty empiricaldispersion=gd3
 ----------------------------------------------------------------------

 -------------------
 Title Card Required
 -------------------
 Symbolic Z-matrix:
 Charge =  0 Multiplicity = 1

 SCF Done:  E(RB3LYP) =  -398.783243156     A.U. after   12 cycles
 SCF Done:  E(RB3LYP) =  -398.787479956     A.U. after   11 cycles
 SCF Done:  E(RB3LYP) =  -398.787778700     A.U. after   11 cycles
 SCF Done:  E(RB3LYP) =  -398.787404548     A.U. after   11 cycles
 SCF Done:  E(RB3LYP) =  -398.787813704     A.U. after    7 cycles
 SCF Done:  E(RB3LYP) =  -398.787819571     A.U. after    8 cycles
 SCF Done:  E(RB3LYP) =  -398.787819867     A.U. after    8 cycles
 SCF Done:  E(RB3LYP) =  -398.787819986     A.U. after    8 cycles
 Optimization completed.
    -- Stationary point found.
 Normal termination of Gaussian 09 at Thu Aug 27 16:54:55 2020.

 ----------------------------------------------------------------------
 #N Geom=AllCheck Guess=TCheck SCRF=Check GenChk RB3LYP/6-31+G(d,p) Fre
 q
 ----------------------------------------------------------------------

 Structure from the checkpoint file:  "b3lyp_dienophile_pm6_cpcmtoluene_1_water.chk"
 -------------------
 Title Card Required
 -------------------
 Charge =  0 Multiplicity = 1

                         Standard orientation:
 ---------------------------------------------------------------------
 Center     Atomic      Atomic             Coordinates (Angstroms)
 Number     Number       Type             X           Y           Z
 ---------------------------------------------------------------------
      1          6           0       -1.139014   -0.214345   -0.002203
      2          6           0       -0.655808   -1.635876    0.002392
      3          6           0        0.681445   -1.625586    0.002477
      4          6           0        1.143880   -0.197013   -0.001570
      5          1           0       -1.336307   -2.476630    0.004675
      6          1           0        1.374930   -2.455663    0.004845
      7          6           0       -0.020458    2.048620    0.005599
      8          1           0        0.929246    2.407576   -0.391739
      9          1           0       -0.840873    2.403609   -0.619626
     10          1           0       -0.152923    2.421738    1.025137
     11          7           0       -0.004185    0.593209   -0.014540
     12          8           0        2.290583    0.221793    0.002248
     13          8           0       -2.291214    0.189720    0.002541
 ---------------------------------------------------------------------

 SCF Done:  E(RB3LYP) =  -398.787819986     A.U. after    1 cycles

 The electronic state is 1-A.
 Alpha  occ. eigenvalues --  -19.17471 -19.17461 -14.40221 -10.33168 -10.33120
 Alpha  occ. eigenvalues --  -10.23691 -10.23604 -10.23294  -1.09206  -1.07364
 Alpha  occ. eigenvalues --   -0.98067  -0.84340  -0.72532  -0.69193  -0.62113
 Alpha  occ. eigenvalues --   -0.57201  -0.51408  -0.50001  -0.48181  -0.46455
 Alpha  occ. eigenvalues --   -0.45867  -0.43911  -0.42490  -0.41581  -0.41061
 Alpha  occ. eigenvalues --   -0.31804  -0.31665  -0.29077  -0.28740
 Alpha virt. eigenvalues --   -0.10980   0.00477   0.02211   0.02795   0.03473
 Alpha virt. eigenvalues --    0.04070   0.04451   0.04615   0.05628   0.06564
 Alpha virt. eigenvalues --    0.08138   0.08593   0.08676   0.09359   0.10362

 Mulliken charges:
               1
     1  C    0.325450
     2  C    0.016920
     3  C    0.017043
     4  C    0.317429
     5  H    0.184477
     6  H    0.184352
     7  C   -0.273217
     8  H    0.179675
     9  H    0.178236
    10  H    0.178421
    11  N   -0.157056
    12  O   -0.576116
    13  O   -0.575614
 Sum of Mulliken charges =   0.00000

 Dipole moment (field-independent basis, Debye):
    X=              0.0335    Y=             -1.5938    Z=             -0.0168  Tot=              1.5943
 Quadrupole moment (field-independent basis, Debye-Ang):
   XX=            -64.0058   YY=            -35.0508   ZZ=            -45.5798
   XY=             -0.1568   XZ=              0.0064   YZ=             -0.0824

  Exact polarizability: 134.144  -0.052  87.251   0.002   0.616  52.640
 Approx polarizability: 175.783   0.247  89.772  -0.005   0.547  59.527

                      1                      2                      3
                      A                      A                      A
 Frequencies --     43.8246               143.9371               170.1967
 Red. masses --      1.0320                 7.0410                 4.2857
 Frc consts  --      0.0012                 0.0859                 0.0731
 IR Inten    --      0.3231                26.3390                 1.3065

                      4                      5                      6
                      A                      A                      A
 Frequencies --    280.2499               296.1942               380.2891
 Red. masses --      3.1732                 4.0835                 9.5688
 Frc consts  --      0.1468                 0.2111                 0.8153
 IR Inten    --      7.3806                 0.0055                35.5926

                      7                      8                      9
                      A                      A                      A
 Frequencies --    569.3756               608.2262               625.8178
 Red. masses --      4.0080                 8.4936                 2.0931
 Frc consts  --      0.7656                 1.8513                 0.4830
 IR Inten    --      0.4683                 4.5174                 0.5488

                     10                     11                     12
                      A                      A                      A
 Frequencies --    701.4754               735.8776               767.7303
 Red. masses --      7.8950                 5.6519                 8.1007
 Frc consts  --      2.2889                 1.8033                 2.8131
 IR Inten    --     93.9083                 0.7181                 0.1723

                     13                     14                     15
                      A                      A                      A
 Frequencies --    828.3174               955.3561               968.2771
 Red. masses --      2.1437                 2.2094                 1.2971
 Frc consts  --      0.8666                 1.1881                 0.7165
 IR Inten    --    111.7431                81.2954                 0.0610

                     16                     17                     18
                      A                      A                      A
 Frequencies --   1052.6852              1112.4225              1141.5679
 Red. masses --      1.6263                 2.6992                 2.2667
 Frc consts  --      1.0618                 1.9680                 1.7404
 IR Inten    --     23.7588                80.0851                 0.7832

                     19                     20                     21
                      A                      A                      A
 Frequencies --   1150.0094              1279.1491              1327.2184
 Red. masses --      1.3354                 2.7966                 1.7434
 Frc consts  --      1.0405                 2.6960                 1.8094
 IR Inten    --      7.8368                88.1200                 2.3255

                     22                     23                     24
                      A                      A                      A
 Frequencies --   1415.2337              1463.8862              1489.4972
 Red. masses --      2.6636                 1.3551                 1.2564
 Frc consts  --      3.1432                 1.7109                 1.6424
 IR Inten    --    215.5999               124.3709                53.4676

                     25                     26                     27
                      A                      A                      A
 Frequencies --   1505.0956              1648.4778              1724.3569
 Red. masses --      1.0587                 6.7515                12.2033
 Frc consts  --      1.4130                10.8099                21.3787
 IR Inten    --     26.9330                 2.2005              1718.5154

                     28                     29                     30
                      A                      A                      A
 Frequencies --   1811.6273              3063.0584              3141.5138
 Red. masses --     11.5433                 1.0355                 1.1019
 Frc consts  --     22.3213                 5.7239                 6.4075
 IR Inten    --     18.6174                43.0381                15.9616

                     31                     32                     33
                      A                      A                      A
 Frequencies --   3173.3398              3254.9941              3274.2312
 Red. masses --      1.1058                 1.0901                 1.1094
 Frc consts  --      6.5609                 6.8046                 7.0077
 IR Inten    --      3.0782                 0.0500                 0.3394

 - Thermochemistry -
 -------------------
 Temperature   298.150 Kelvin.  Pressure   1.00000 Atm.
 Atom     1 has atomic number  6 and mass  12.00000

 Molecular mass:   111.03203 amu.
 Principal axes and moments of inertia in atomic units:
                           1         2         3
     Eigenvalues --   545.95808 774.258921308.75732
           X            0.99999  -0.00343   0.00000
           Y            0.00343   0.99999   0.00018
           Z            0.00000  -0.00018   1.00000
 This molecule is an asymmetric top.
 Rotational symmetry number  1.
 Warning -- assumption of classical behavior for rotation
           may cause significant error
 Rotational temperatures (Kelvin)      0.15865     0.11187     0.06618
 Rotational constants (GHZ):           3.30564     2.33093     1.37897
 Zero-point vibrational energy     251834.9 (Joules/Mol)
                                   60.18999 (Kcal/Mol)
 Warning -- explicit consideration of   8 degrees of freedom as
           vibrations may cause significant error
 Vibrational temperatures:     63.05   207.09   244.87   403.22   426.16
          (Kelvin)            547.15   819.20   875.10   900.41  1009.27
                             1058.76  1104.59  1191.76  1374.54  1393.13
                             1514.58  1600.53  1642.46  1654.60  1840.41
                             1909.57  2036.20  2106.20  2143.05  2165.49
                             2371.79  2480.96  2606.52  4407.05  4519.93
                             4565.72  4683.20  4710.88

 Zero-point correction=                           0.095919 (Hartree/Particle)
 Thermal correction to Energy=                    0.103142
 Thermal correction to Enthalpy=                  0.104087
 Thermal correction to Gibbs Free Energy=         0.063688
 Sum of electronic and zero-point Energies=           -398.691901
 Sum of electronic and thermal Energies=              -398.684678
 Sum of electronic and thermal Enthalpies=            -398.683733
 Sum of electronic and thermal Free Energies=         -398.724132

                     E (Thermal)             CV                S
                      KCal/Mol        Cal/Mol-Kelvin    Cal/Mol-Kelvin
 Total                   64.723             25.275             85.025
 Electronic               0.000              0.000              0.000
 Translational            0.889              2.981             40.030
 Rotational               0.889              2.981             27.805
 Vibrational             62.945             19.314             17.190
 Vibration     1          0.595              1.980              5.078
 Vibration     2          0.616              1.909              2.751
 Vibration     3          0.625              1.879              2.433
 Vibration     4          0.680              1.710              1.532
 Vibration     5          0.690              1.681              1.438
 Vibration     6          0.750              1.512              1.038
 Vibration     7          0.925              1.097              0.505
 Vibration     8          0.967              1.014              0.436

 Normal termination of Gaussian 09 at Thu Aug 27 16:56:49 2020.
