 Gaussian 09, Revision D.01,
 Gaussian 09:  ES64L-G09RevD.01 24-Apr-2013

 ----------------------------------------------------------------------
 # opt=(calcfc,ts,noeigentest) b3lyp/6-31+g(d,p) scrf=(cpcm,solvent=wat
 er) geom=connectivity empiricaldispersion=gd3
 ----------------------------------------------------------------------

 -------------------
 Title Card Required
 -------------------
 Symbolic Z-matrix:
 Charge =  0 Multiplicity = 1

 SCF Done:  E(RB3LYP) =  -861.314086272     A.U. after   15 cycles

  Exact polarizability:   0.000   0.000   0.000   0.000   0.000   0.000
 Approx polarizability: 335.772   3.937 322.613  20.157 -19.715 232.126

 SCF Done:  E(RB3LYP) =  -861.325952796     A.U. after   13 cycles
 SCF Done:  E(RB3LYP) =  -861.329408233     A.U. after   13 cycles
 SCF Done:  E(RB3LYP) =  -861.330145446     A.U. after   13 cycles
 SCF Done:  E(RB3LYP) =  -861.330271952     A.U. after   13 cycles
 SCF Done:  E(RB3LYP) =  -861.330312943     A.U. after   13 cycles
 SCF Done:  E(RB3LYP) =  -861.330207854     A.U. after   13 cycles
 SCF Done:  E(RB3LYP) =  -861.330173282     A.U. after   12 cycles
 SCF Done:  E(RB3LYP) =  -861.330379842     A.U. after   13 cycles
 SCF Done:  E(RB3LYP) =  -861.330340410     A.U. after   13 cycles
 SCF Done:  E(RB3LYP) =  -861.330942525     A.U. after   12 cycles
 SCF Done:  E(RB3LYP) =  -861.330788543     A.U. after   13 cycles
 SCF Done:  E(RB3LYP) =  -861.330977742     A.U. after   12 cycles
 SCF Done:  E(RB3LYP) =  -861.330902356     A.U. after   12 cycles
 SCF Done:  E(RB3LYP) =  -861.330963980     A.U. after   12 cycles
 SCF Done:  E(RB3LYP) =  -861.330907759     A.U. after   12 cycles
 SCF Done:  E(RB3LYP) =  -861.330930015     A.U. after   12 cycles
 SCF Done:  E(RB3LYP) =  -861.330974263     A.U. after   11 cycles
 SCF Done:  E(RB3LYP) =  -861.330974673     A.U. after   10 cycles
 SCF Done:  E(RB3LYP) =  -861.330975207     A.U. after    9 cycles
 Optimization completed.
    -- Stationary point found.

                         Standard orientation:
 ---------------------------------------------------------------------
 Center     Atomic      Atomic             Coordinates (Angstroms)
 Number     Number       Type             X           Y           Z
 ---------------------------------------------------------------------
      1          6           0       -2.615232    0.671114   -0.605504
      2          6           0       -1.596696   -0.285973   -1.095735
      3          6           0       -0.332904    0.267277   -0.845648
      4          6           0       -0.554945    1.592921   -0.197436
      5          1           0       -1.840579   -0.991981   -1.875501
      6          1           0        0.553277    0.104089   -1.442595
      7          6           0       -2.547870    2.859500    0.668900
      8          1           0       -3.592044    2.612054    0.860418
      9          1           0       -2.040518    3.076269    1.610800
     10          1           0       -2.496741    3.740489    0.022036
     11          7           0       -1.922641    1.712852    0.030711
     12          8           0        0.275036    2.444342    0.108021
     13          8           0       -3.836700    0.618135   -0.705485
     14          6           0       -0.830824   -2.638540    0.327448
     15          1           0       -0.882514   -3.617605   -0.145607
     16          6           0        0.437002   -2.074413    0.517343
     17          1           0        1.301258   -2.633300    0.168127
     18          6           0       -2.019596   -1.936630    0.506368
     19          1           0       -2.030649   -1.110471    1.213127
     20          6           0       -3.362038   -2.524210    0.187089
     21          1           0       -4.042706   -1.753982   -0.188238
     22          1           0       -3.286961   -3.326629   -0.552694
     23          1           0       -3.814673   -2.936771    1.098710
     24          6           0        0.623508   -0.743273    0.889339
     25          1           0       -0.103375   -0.272519    1.546039
     26          6           0        1.988292   -0.125295    0.988461
     27          1           0        2.469598   -0.417712    1.929885
     28          1           0        1.906177    0.963396    0.953024
     29          6           0        4.015698   -0.107599   -0.379019
     30          6           0        4.546747    0.994376    0.502726
     31          1           0        4.536150    0.699236    1.555894
     32          1           0        5.566049    1.225680    0.197262
     33          1           0        3.927331    1.891610    0.403616
     34          8           0        2.784822   -0.605161   -0.123454
     35          8           0        4.629661   -0.574483   -1.323489
 ---------------------------------------------------------------------

 The electronic state is 1-A.
 Alpha  occ. eigenvalues --  -19.21288 -19.15981 -19.15785 -19.15707 -14.39372
 Alpha  occ. eigenvalues --  -10.33943 -10.31845 -10.31748 -10.26333 -10.22971
 Alpha  occ. eigenvalues --  -10.22831 -10.22814 -10.22271 -10.21768 -10.20827
 Alpha  occ. eigenvalues --  -10.20607 -10.20538 -10.18848  -1.11733  -1.07814
 Alpha  occ. eigenvalues --   -1.05829  -1.03407  -0.96745  -0.84930  -0.81956
 Alpha  occ. eigenvalues --   -0.79743  -0.75989  -0.74128  -0.71340  -0.68745
 Alpha  occ. eigenvalues --   -0.66863  -0.62469  -0.61157  -0.58791  -0.55867
 Alpha  occ. eigenvalues --   -0.53866  -0.51554  -0.51291  -0.50500  -0.49566
 Alpha  occ. eigenvalues --   -0.49337  -0.47307  -0.47053  -0.45822  -0.44943
 Alpha  occ. eigenvalues --   -0.44673  -0.43767  -0.43236  -0.42852  -0.41987
 Alpha  occ. eigenvalues --   -0.41265  -0.40931  -0.40566  -0.40041  -0.39522
 Alpha  occ. eigenvalues --   -0.39311  -0.37361  -0.36777  -0.35888  -0.35266
 Alpha  occ. eigenvalues --   -0.31668  -0.30419  -0.29395  -0.28822  -0.28084
 Alpha  occ. eigenvalues --   -0.25643  -0.24294
 Alpha virt. eigenvalues --   -0.08459  -0.05233  -0.01289  -0.00058   0.00681
 Alpha virt. eigenvalues --    0.01214   0.01688   0.02195   0.02858   0.03139
 Alpha virt. eigenvalues --    0.03338   0.04106   0.04614   0.04763   0.05455

 Mulliken charges:
               1
     1  C    0.109812
     2  C   -0.020417
     3  C   -0.108730
     4  C    0.042710
     5  H    0.178799
     6  H    0.188938
     7  C   -0.219024
     8  H    0.177430
     9  H    0.173388
    10  H    0.172021
    11  N   -0.011522
    12  O   -0.538604
    13  O   -0.559347
    14  C   -0.262670
    15  H    0.143227
    16  C   -0.030851
    17  H    0.154430
    18  C    0.480523
    19  H    0.149876
    20  C   -0.682618
    21  H    0.181712
    22  H    0.158028
    23  H    0.170804
    24  C    0.401561
    25  H    0.167998
    26  C   -0.723575
    27  H    0.177912
    28  H    0.179408
    29  C    0.490026
    30  C   -0.429085
    31  H    0.192306
    32  H    0.189447
    33  H    0.200082
    34  O   -0.384167
    35  O   -0.509827
 Sum of Mulliken charges =   0.00000

 Dipole moment (field-independent basis, Debye):
    X=             -1.3367    Y=             -0.9312    Z=              5.5277  Tot=              5.7628
 Quadrupole moment (field-independent basis, Debye-Ang):
   XX=           -132.3132   YY=           -104.9858   ZZ=           -107.1855
   XY=             10.3891   XZ=             12.3875   YZ=              1.2025

 Normal termination of Gaussian 09 at Thu Aug 27 22:10:55 2020.
