 Gaussian 09, Revision D.01,
 Gaussian 09:  ES64L-G09RevD.01 24-Apr-2013

 ----------------------------------------------------------------------
 # freq b3lyp/6-31+g(d,p) scrf=(cpcm,solvent=water) geom=connectivity e
 mpiricaldispersion=gd3
 ----------------------------------------------------------------------

 -------------------
 Title Card Required
 -------------------
 Symbolic Z-matrix:
 Charge =  0 Multiplicity = 1

                         Standard orientation:
 ---------------------------------------------------------------------
 Center     Atomic      Atomic             Coordinates (Angstroms)
 Number     Number       Type             X           Y           Z
 ---------------------------------------------------------------------
      1          6           0       -2.615232   -0.671114    0.605504
      2          6           0       -1.596696    0.285973    1.095735
      3          6           0       -0.332904   -0.267277    0.845648
      4          6           0       -0.554945   -1.592921    0.197436
      5          1           0       -1.840579    0.991981    1.875501
      6          1           0        0.553277   -0.104089    1.442595
      7          6           0       -2.547870   -2.859500   -0.668900
      8          1           0       -3.592044   -2.612054   -0.860418
      9          1           0       -2.040518   -3.076269   -1.610800
     10          1           0       -2.496741   -3.740489   -0.022036
     11          7           0       -1.922641   -1.712852   -0.030711
     12          8           0        0.275036   -2.444342   -0.108021
     13          8           0       -3.836700   -0.618135    0.705485
     14          6           0       -0.830824    2.638540   -0.327448
     15          1           0       -0.882514    3.617605    0.145607
     16          6           0        0.437002    2.074413   -0.517343
     17          1           0        1.301258    2.633300   -0.168127
     18          6           0       -2.019596    1.936630   -0.506368
     19          1           0       -2.030649    1.110471   -1.213127
     20          6           0       -3.362038    2.524210   -0.187089
     21          1           0       -4.042706    1.753982    0.188238
     22          1           0       -3.286961    3.326629    0.552694
     23          1           0       -3.814673    2.936771   -1.098710
     24          6           0        0.623508    0.743273   -0.889339
     25          1           0       -0.103375    0.272519   -1.546039
     26          6           0        1.988292    0.125295   -0.988461
     27          1           0        2.469598    0.417712   -1.929885
     28          1           0        1.906177   -0.963396   -0.953024
     29          6           0        4.015698    0.107599    0.379019
     30          6           0        4.546747   -0.994376   -0.502726
     31          1           0        4.536150   -0.699236   -1.555894
     32          1           0        5.566049   -1.225680   -0.197262
     33          1           0        3.927331   -1.891610   -0.403616
     34          8           0        2.784822    0.605161    0.123454
     35          8           0        4.629661    0.574483    1.323489
 ---------------------------------------------------------------------

 SCF Done:  E(RB3LYP) =  -861.330975207     A.U. after   15 cycles

 The electronic state is 1-A.
 Alpha  occ. eigenvalues --  -19.21288 -19.15981 -19.15785 -19.15707 -14.39372
 Alpha  occ. eigenvalues --  -10.33943 -10.31845 -10.31748 -10.26333 -10.22971
 Alpha  occ. eigenvalues --  -10.22831 -10.22814 -10.22271 -10.21768 -10.20827
 Alpha  occ. eigenvalues --  -10.20607 -10.20538 -10.18848  -1.11733  -1.07814
 Alpha  occ. eigenvalues --   -1.05829  -1.03407  -0.96745  -0.84930  -0.81956
 Alpha  occ. eigenvalues --   -0.79743  -0.75989  -0.74128  -0.71340  -0.68745
 Alpha  occ. eigenvalues --   -0.66863  -0.62469  -0.61157  -0.58791  -0.55867
 Alpha  occ. eigenvalues --   -0.53866  -0.51554  -0.51291  -0.50500  -0.49566
 Alpha  occ. eigenvalues --   -0.49337  -0.47307  -0.47053  -0.45822  -0.44943
 Alpha  occ. eigenvalues --   -0.44673  -0.43767  -0.43236  -0.42852  -0.41987
 Alpha  occ. eigenvalues --   -0.41265  -0.40931  -0.40566  -0.40041  -0.39522
 Alpha  occ. eigenvalues --   -0.39311  -0.37361  -0.36777  -0.35888  -0.35266
 Alpha  occ. eigenvalues --   -0.31668  -0.30419  -0.29394  -0.28822  -0.28084
 Alpha  occ. eigenvalues --   -0.25643  -0.24294
 Alpha virt. eigenvalues --   -0.08459  -0.05233  -0.01289  -0.00058   0.00681
 Alpha virt. eigenvalues --    0.01214   0.01688   0.02195   0.02858   0.03139
 Alpha virt. eigenvalues --    0.03338   0.04106   0.04614   0.04763   0.05455

 Mulliken charges:
               1
     1  C    0.109812
     2  C   -0.020416
     3  C   -0.108731
     4  C    0.042711
     5  H    0.178799
     6  H    0.188938
     7  C   -0.219023
     8  H    0.177430
     9  H    0.173388
    10  H    0.172021
    11  N   -0.011523
    12  O   -0.538604
    13  O   -0.559347
    14  C   -0.262669
    15  H    0.143228
    16  C   -0.030851
    17  H    0.154430
    18  C    0.480523
    19  H    0.149876
    20  C   -0.682619
    21  H    0.181712
    22  H    0.158028
    23  H    0.170804
    24  C    0.401562
    25  H    0.167997
    26  C   -0.723575
    27  H    0.177912
    28  H    0.179408
    29  C    0.490025
    30  C   -0.429085
    31  H    0.192306
    32  H    0.189447
    33  H    0.200082
    34  O   -0.384167
    35  O   -0.509828
 Sum of Mulliken charges =   0.00000

 Dipole moment (field-independent basis, Debye):
    X=             -1.3367    Y=              0.9312    Z=             -5.5277  Tot=              5.7628
 Quadrupole moment (field-independent basis, Debye-Ang):
   XX=           -132.3133   YY=           -104.9858   ZZ=           -107.1855
   XY=            -10.3891   XZ=            -12.3875   YZ=              1.2025

  Exact polarizability: 306.183  -8.428 279.880 -10.942  -6.545 191.808
 Approx polarizability: 346.205 -11.912 315.240 -19.621 -15.298 225.625

 ******    1 imaginary frequencies (negative Signs) ******

                      1                      2                      3
                      A                      A                      A
 Frequencies --   -433.3731                26.1844                37.6695
 Red. masses --      8.1108                 6.4545                 4.8108
 Frc consts  --      0.8975                 0.0026                 0.0040
 IR Inten    --      7.9381                 1.5715                 8.4122

                      4                      5                      6
                      A                      A                      A
 Frequencies --     43.2364                70.0977                74.8039
 Red. masses --      4.6674                 1.0955                 3.6408
 Frc consts  --      0.0051                 0.0032                 0.0120
 IR Inten    --      9.3008                 0.6523                 2.2994

                      7                      8                      9
                      A                      A                      A
 Frequencies --     92.7598               124.2522               146.2740
 Red. masses --      3.5491                 6.7932                 5.7141
 Frc consts  --      0.0180                 0.0618                 0.0720
 IR Inten    --      3.7408                 0.1383                 1.0035

                     10                     11                     12
                      A                      A                      A
 Frequencies --    158.1212               163.4808               171.9266
 Red. masses --      3.6105                 2.1110                 3.2089
 Frc consts  --      0.0532                 0.0332                 0.0559
 IR Inten    --      7.9887                 0.4134                 9.6637

                     13                     14                     15
                      A                      A                      A
 Frequencies --    175.9343               183.7134               194.2644
 Red. masses --      1.3659                 2.2278                 2.7689
 Frc consts  --      0.0249                 0.0443                 0.0616
 IR Inten    --      4.6839                 3.1933                 3.4214

                     16                     17                     18
                      A                      A                      A
 Frequencies --    230.1771               263.5111               286.2994
 Red. masses --      3.8641                 2.4534                 3.3198
 Frc consts  --      0.1206                 0.1004                 0.1603
 IR Inten    --      2.5280                 7.5875                 6.7125

                     19                     20                     21
                      A                      A                      A
 Frequencies --    291.0076               314.8300               366.6009
 Red. masses --      3.2218                 2.6600                 3.0903
 Frc consts  --      0.1608                 0.1553                 0.2447
 IR Inten    --      1.1041                 4.4675                 0.9775

                     22                     23                     24
                      A                      A                      A
 Frequencies --    389.7139               433.3506               462.2031
 Red. masses --      8.4162                 4.7274                 3.1796
 Frc consts  --      0.7531                 0.5231                 0.4002
 IR Inten    --     45.1397                17.2408                 4.5580

                     25                     26                     27
                      A                      A                      A
 Frequencies --    488.4103               538.8911               577.8739
 Red. masses --      2.8950                 4.9285                 2.5614
 Frc consts  --      0.4069                 0.8433                 0.5040
 IR Inten    --      2.6531                16.1880                10.1675

                     28                     29                     30
                      A                      A                      A
 Frequencies --    597.2367               604.8037               618.6145
 Red. masses --      4.7751                 9.1211                 3.9952
 Frc consts  --      1.0035                 1.9657                 0.9008
 IR Inten    --     25.7155                22.3595                 9.2405

                     31                     32                     33
                      A                      A                      A
 Frequencies --    709.9511               717.0684               720.8099
 Red. masses --      4.0966                 8.0735                 5.2036
 Frc consts  --      1.2165                 2.4459                 1.5929
 IR Inten    --      2.4817                78.4780                13.6897

                     34                     35                     36
                      A                      A                      A
 Frequencies --    758.5534               770.2692               791.8633
 Red. masses --      5.4543                 6.9772                 1.3447
 Frc consts  --      1.8491                 2.4390                 0.4968
 IR Inten    --      6.1819                12.6056                45.5255

                     37                     38                     39
                      A                      A                      A
 Frequencies --    824.9173               855.2806               906.1412
 Red. masses --      2.1767                 1.8419                 1.3829
 Frc consts  --      0.8727                 0.7938                 0.6690
 IR Inten    --      5.6607                 8.7750                 8.8893

                     40                     41                     42
                      A                      A                      A
 Frequencies --    926.9586               943.9754               961.7829
 Red. masses --      1.6549                 1.3105                 2.1068
 Frc consts  --      0.8378                 0.6880                 1.1482
 IR Inten    --     17.2230                85.0405               106.2243

                     43                     44                     45
                      A                      A                      A
 Frequencies --    974.3498               995.4930              1014.1647
 Red. masses --      1.3355                 1.9128                 1.3458
 Frc consts  --      0.7470                 1.1168                 0.8156
 IR Inten    --     94.8554                64.7859                69.1606

                     46                     47                     48
                      A                      A                      A
 Frequencies --   1028.1459              1028.3095              1053.9323
 Red. masses --      1.6429                 1.4762                 1.5250
 Frc consts  --      1.0232                 0.9197                 0.9980
 IR Inten    --     75.7869                31.2487                21.5132

                     49                     50                     51
                      A                      A                      A
 Frequencies --   1059.3526              1069.3491              1078.9429
 Red. masses --      1.7450                 1.5279                 3.3431
 Frc consts  --      1.1538                 1.0294                 2.2929
 IR Inten    --     23.1632                23.4939               102.2387

                     52                     53                     54
                      A                      A                      A
 Frequencies --   1117.4725              1131.6806              1140.4647
 Red. masses --      2.5177                 1.8816                 3.3598
 Frc consts  --      1.8524                 1.4198                 2.5747
 IR Inten    --     49.8893                15.9811               130.1716

                     55                     56                     57
                      A                      A                      A
 Frequencies --   1148.8987              1177.5482              1250.4520
 Red. masses --      1.3011                 2.0663                 2.0864
 Frc consts  --      1.0119                 1.6881                 1.9221
 IR Inten    --      7.2605                 7.9962               701.4148

                     58                     59                     60
                      A                      A                      A
 Frequencies --   1269.8402              1275.4046              1289.1879
 Red. masses --      1.6013                 2.5518                 1.4508
 Frc consts  --      1.5213                 2.4456                 1.4207
 IR Inten    --    171.8109                23.1836                21.0524

                     61                     62                     63
                      A                      A                      A
 Frequencies --   1292.9121              1331.1190              1346.1950
 Red. masses --      1.3283                 1.7317                 1.4027
 Frc consts  --      1.3083                 1.8078                 1.4977
 IR Inten    --     50.6538                 3.5196                12.1939

                     64                     65                     66
                      A                      A                      A
 Frequencies --   1369.6540              1401.3698              1407.2317
 Red. masses --      1.8196                 1.3226                 3.2105
 Frc consts  --      2.0111                 1.5304                 3.7458
 IR Inten    --     20.8882                87.7586               443.2160

                     67                     68                     69
                      A                      A                      A
 Frequencies --   1412.6146              1422.5823              1431.3306
 Red. masses --      1.2927                 2.4685                 1.4093
 Frc consts  --      1.5198                 2.9433                 1.7011
 IR Inten    --     26.7188                 6.9917                 2.7332

                     70                     71                     72
                      A                      A                      A
 Frequencies --   1462.4876              1467.1233              1471.6149
 Red. masses --      1.3752                 1.0787                 1.0592
 Frc consts  --      1.7330                 1.3680                 1.3515
 IR Inten    --    175.2161                24.8409                33.4014

                     73                     74                     75
                      A                      A                      A
 Frequencies --   1477.8110              1485.6173              1491.7258
 Red. masses --      1.0481                 1.1423                 1.0855
 Frc consts  --      1.3487                 1.4854                 1.4232
 IR Inten    --     20.9220                55.0237                23.0705

                     76                     77                     78
                      A                      A                      A
 Frequencies --   1495.5634              1503.2713              1591.2286
 Red. masses --      1.0818                 1.0710                 3.1689
 Frc consts  --      1.4257                 1.4259                 4.7274
 IR Inten    --     21.0749                20.1520                32.8108

                     79                     80                     81
                      A                      A                      A
 Frequencies --   1595.8549              1697.7403              1758.4329
 Red. masses --      3.6052                11.5772                10.7327
 Frc consts  --      5.4096                19.6606                19.5528
 IR Inten    --     41.4419              1685.8489               690.2892

                     82                     83                     84
                      A                      A                      A
 Frequencies --   1773.6723              3025.6831              3042.0798
 Red. masses --     11.2611                 1.0417                 1.0638
 Frc consts  --     20.8727                 5.6185                 5.8002
 IR Inten    --    338.5918                38.0405                29.2283

                     85                     86                     87
                      A                      A                      A
 Frequencies --   3058.3063              3060.7769              3091.6550
 Red. masses --      1.0359                 1.0386                 1.0930
 Frc consts  --      5.7088                 5.7325                 6.1554
 IR Inten    --     66.0013                 1.2990                15.0633

                     88                     89                     90
                      A                      A                      A
 Frequencies --   3121.0625              3126.1104              3127.7131
 Red. masses --      1.1008                 1.1033                 1.1006
 Frc consts  --      6.3175                 6.3524                 6.3437
 IR Inten    --      2.4482                13.8129                 3.7492

                     91                     92                     93
                      A                      A                      A
 Frequencies --   3132.4424              3160.1539              3170.5875
 Red. masses --      1.1023                 1.0894                 1.0866
 Frc consts  --      6.3724                 6.4102                 6.4360
 IR Inten    --     20.7396                 8.4133                30.3168

                     94                     95                     96
                      A                      A                      A
 Frequencies --   3171.1959              3176.2300              3179.6007
 Red. masses --      1.1044                 1.0893                 1.1029
 Frc consts  --      6.5436                 6.4746                 6.5694
 IR Inten    --      4.1677                 8.3884                 8.4732

                     97                     98                     99
                      A                      A                      A
 Frequencies --   3190.7336              3249.9596              3269.3238
 Red. masses --      1.0902                 1.0922                 1.0976
 Frc consts  --      6.5393                 6.7968                 6.9118
 IR Inten    --     17.2057                 0.6748                 1.3461

 - Thermochemistry -
 -------------------
 Temperature   298.150 Kelvin.  Pressure   1.00000 Atm.
 Atom     1 has atomic number  6 and mass  12.00000

 Molecular mass:   251.11576 amu.
 Principal axes and moments of inertia in atomic units:
                           1         2         3
     Eigenvalues --  2758.341656851.325318716.60002
           X            0.99973  -0.02275  -0.00532
           Y            0.02283   0.99961   0.01617
           Z            0.00495  -0.01629   0.99986
 This molecule is an asymmetric top.
 Rotational symmetry number  1.
 Warning -- assumption of classical behavior for rotation
           may cause significant error
 Rotational temperatures (Kelvin)      0.03140     0.01264     0.00994
 Rotational constants (GHZ):           0.65428     0.26341     0.20705
    1 imaginary frequencies ignored.
 Zero-point vibrational energy     742627.2 (Joules/Mol)
                                  177.49216 (Kcal/Mol)
 Warning -- explicit consideration of  29 degrees of freedom as
           vibrations may cause significant error
 Vibrational temperatures:     37.67    54.20    62.21   100.85   107.63
          (Kelvin)            133.46   178.77   210.46   227.50   235.21
                              247.36   253.13   264.32   279.50   331.17
                              379.13   411.92   418.69   452.97   527.46
                              560.71   623.49   665.01   702.71   775.34
                              831.43   859.29   870.18   890.05  1021.46
                             1031.70  1037.08  1091.39  1108.24  1139.31
                             1186.87  1230.56  1303.73  1333.69  1358.17
                             1383.79  1401.87  1432.29  1459.15  1479.27
                             1479.51  1516.37  1524.17  1538.55  1552.36
                             1607.79  1628.23  1640.87  1653.01  1694.23
                             1799.12  1827.01  1835.02  1854.85  1860.21
                             1915.18  1936.87  1970.62  2016.26  2024.69
                             2032.43  2046.78  2059.36  2104.19  2110.86
                             2117.32  2126.24  2137.47  2146.26  2151.78
                             2162.87  2289.42  2296.08  2442.67  2529.99
                             2551.92  4353.28  4376.87  4400.22  4403.77
                             4448.20  4490.51  4497.77  4500.08  4506.88
                             4546.75  4561.76  4562.64  4569.88  4574.73
                             4590.75  4675.96  4703.82

 Zero-point correction=                           0.282852 (Hartree/Particle)
 Thermal correction to Energy=                    0.301558
 Thermal correction to Enthalpy=                  0.302502
 Thermal correction to Gibbs Free Energy=         0.234656
 Sum of electronic and zero-point Energies=           -861.048123
 Sum of electronic and thermal Energies=              -861.029417
 Sum of electronic and thermal Enthalpies=            -861.028473
 Sum of electronic and thermal Free Energies=         -861.096319

                     E (Thermal)             CV                S
                      KCal/Mol        Cal/Mol-Kelvin    Cal/Mol-Kelvin
 Total                  189.231             68.098            142.794
 Electronic               0.000              0.000              0.000
 Translational            0.889              2.981             42.463
 Rotational               0.889              2.981             33.465
 Vibrational            187.453             62.136             66.866
 Vibration     1          0.593              1.985              6.099
 Vibration     2          0.594              1.982              5.378
 Vibration     3          0.595              1.980              5.105
 Vibration     4          0.598              1.968              4.151
 Vibration     5          0.599              1.966              4.023
 Vibration     6          0.602              1.954              3.601
 Vibration     7          0.610              1.929              3.033
 Vibration     8          0.617              1.907              2.720
 Vibration     9          0.621              1.894              2.572
 Vibration    10          0.623              1.887              2.509
 Vibration    11          0.626              1.877              2.414
 Vibration    12          0.628              1.872              2.371
 Vibration    13          0.631              1.862              2.290
 Vibration    14          0.635              1.848              2.187
 Vibration    15          0.652              1.795              1.878
 Vibration    16          0.670              1.740              1.638
 Vibration    17          0.684              1.699              1.496
 Vibration    18          0.687              1.690              1.468
 Vibration    19          0.702              1.645              1.337
 Vibration    20          0.740              1.541              1.094
 Vibration    21          0.758              1.492              1.001
 Vibration    22          0.794              1.398              0.848
 Vibration    23          0.820              1.334              0.760
 Vibration    24          0.844              1.276              0.688
 Vibration    25          0.894              1.164              0.568
 Vibration    26          0.934              1.079              0.489
 Vibration    27          0.955              1.038              0.454
 Vibration    28          0.963              1.022              0.441
 Vibration    29          0.978              0.993              0.419

 Normal termination of Gaussian 09 at Fri Aug 28 01:27:00 2020.
