 Gaussian 09, Revision D.01,
 Gaussian 09:  ES64L-G09RevD.01 24-Apr-2013

 ----------------------------------------------------------------------
 # opt freq b3lyp/6-31+g(d,p) scrf=(cpcm,solvent=water) geom=connectivi
 ty empiricaldispersion=gd3
 ----------------------------------------------------------------------

 -------------------
 Title Card Required
 -------------------
 Symbolic Z-matrix:
 Charge =  0 Multiplicity = 1

 SCF Done:  E(RB3LYP) =  -872.226221104     A.U. after   14 cycles
 SCF Done:  E(RB3LYP) =  -872.226229965     A.U. after    9 cycles
 SCF Done:  E(RB3LYP) =  -872.226243322     A.U. after   10 cycles
 SCF Done:  E(RB3LYP) =  -872.226247556     A.U. after   10 cycles
 SCF Done:  E(RB3LYP) =  -872.226259305     A.U. after    9 cycles
 SCF Done:  E(RB3LYP) =  -872.226275193     A.U. after   10 cycles
 SCF Done:  E(RB3LYP) =  -872.226276093     A.U. after    9 cycles
 SCF Done:  E(RB3LYP) =  -872.226279076     A.U. after    8 cycles
 SCF Done:  E(RB3LYP) =  -872.226292711     A.U. after   10 cycles
 SCF Done:  E(RB3LYP) =  -872.226303007     A.U. after   10 cycles
 SCF Done:  E(RB3LYP) =  -872.226678551     A.U. after    8 cycles
 SCF Done:  E(RB3LYP) =  -872.226678527     A.U. after    8 cycles
 SCF Done:  E(RB3LYP) =  -872.226678479     A.U. after    7 cycles
 SCF Done:  E(RB3LYP) =  -872.226678432     A.U. after    7 cycles
 SCF Done:  E(RB3LYP) =  -872.226678374     A.U. after    6 cycles
 SCF Done:  E(RB3LYP) =  -872.226678283     A.U. after    7 cycles
 SCF Done:  E(RB3LYP) =  -872.226678225     A.U. after    7 cycles
 SCF Done:  E(RB3LYP) =  -872.226678237     A.U. after    7 cycles
 SCF Done:  E(RB3LYP) =  -872.226678275     A.U. after    7 cycles
 Optimization completed.
    -- Stationary point found.
 Normal termination of Gaussian 09 at Fri Sep 25 01:53:11 2020.

 ----------------------------------------------------------------------
 #N Geom=AllCheck Guess=TCheck SCRF=Check GenChk RB3LYP/6-31+G(d,p) Fre
 q
 ----------------------------------------------------------------------

 Structure from the checkpoint file:  "b3lyp_m062x_dmad_4H2O_cycloaddition_PM6_toluene_water_4.chk"
 -------------------
 Title Card Required
 -------------------
 Charge =  0 Multiplicity = 1

                         Standard orientation:
 ---------------------------------------------------------------------
 Center     Atomic      Atomic             Coordinates (Angstroms)
 Number     Number       Type             X           Y           Z
 ---------------------------------------------------------------------
      1          7           0       -0.282695    0.489291    0.254299
      2          7           0        0.282653   -0.489939   -0.254429
      3          6           0       -1.724818    0.331613    0.354155
      4          6           0        1.724803   -0.332161   -0.354213
      5          8           0        2.444402   -0.956895    0.395673
      6          8           0       -2.444438    0.957074   -0.395109
      7          8           0        2.042511    0.447689   -1.357197
      8          8           0       -2.042565   -0.449108    1.356467
      9          6           0       -3.466598   -0.695533    1.567276
     10          1           0       -3.513356   -1.307874    2.464385
     11          1           0       -3.986516    0.252318    1.712024
     12          1           0       -3.856426   -1.231825    0.701654
     13          6           0        3.466516    0.694229   -1.568067
     14          1           0        3.856105    1.231413   -0.702890
     15          1           0        3.986662   -0.253640   -1.711870
     16          1           0        3.513251    1.305742   -2.465742
     17          8           0       -5.310109    0.923893   -0.853400
     18          1           0       -4.345922    0.954614   -0.727768
     19          1           0       -5.479425    1.433696   -1.656261
     20          8           0       -1.946470   -2.372802   -1.013718
     21          1           0       -2.106279   -2.413038   -1.966008
     22          1           0       -1.030817   -2.062504   -0.922165
     23          8           0        1.946684    2.371982    1.012953
     24          1           0        1.030807    2.062154    0.922083
     25          1           0        2.108255    2.409076    1.965073
     26          8           0        5.309876   -0.919673    0.855176
     27          1           0        4.345799   -0.951848    0.729045
     28          1           0        5.479619   -1.429912    1.657671
 ---------------------------------------------------------------------

 SCF Done:  E(RB3LYP) =  -872.226678275     A.U. after    1 cycles

 The electronic state is 1-A.
 Alpha  occ. eigenvalues --  -19.24762 -19.24761 -19.19838 -19.19837 -19.16607
 Alpha  occ. eigenvalues --  -19.16607 -19.15965 -19.15965 -14.46744 -14.46691
 Alpha  occ. eigenvalues --  -10.39073 -10.39072 -10.26061 -10.26060  -1.17697
 Alpha  occ. eigenvalues --   -1.16271  -1.09765  -1.07705  -1.07412  -1.01802
 Alpha  occ. eigenvalues --   -1.01792  -1.01129  -1.01125  -0.83843  -0.76634
 Alpha  occ. eigenvalues --   -0.73230  -0.63957  -0.59449  -0.58436  -0.56643
 Alpha  occ. eigenvalues --   -0.54999  -0.54501  -0.53852  -0.52585  -0.52021
 Alpha  occ. eigenvalues --   -0.51676  -0.51323  -0.49402  -0.46911  -0.46466
 Alpha  occ. eigenvalues --   -0.44577  -0.43297  -0.42115  -0.40513  -0.40453
 Alpha  occ. eigenvalues --   -0.39785  -0.39555  -0.38726  -0.38685  -0.35687
 Alpha  occ. eigenvalues --   -0.35057  -0.35003  -0.34354  -0.32344  -0.32285
 Alpha  occ. eigenvalues --   -0.31702  -0.31699  -0.29699
 Alpha virt. eigenvalues --   -0.12393  -0.03290  -0.03116  -0.00020   0.00901
 Alpha virt. eigenvalues --    0.01719   0.02346   0.02744   0.03539   0.03767
 Alpha virt. eigenvalues --    0.04742   0.06508   0.06513   0.07681   0.08132

 Mulliken charges:
               1
     1  N   -0.142895
     2  N   -0.142550
     3  C    0.561523
     4  C    0.561210
     5  O   -0.515409
     6  O   -0.515530
     7  O   -0.281193
     8  O   -0.281314
     9  C   -0.207829
    10  H    0.182222
    11  H    0.185593
    12  H    0.195146
    13  C   -0.207726
    14  H    0.195156
    15  H    0.185595
    16  H    0.182220
    17  O   -0.814037
    18  H    0.428727
    19  H    0.382318
    20  O   -0.767963
    21  H    0.386468
    22  H    0.407344
    23  O   -0.767892
    24  H    0.407387
    25  H    0.386436
    26  O   -0.814017
    27  H    0.428677
    28  H    0.382333
 Sum of Mulliken charges =   0.00000

 Dipole moment (field-independent basis, Debye):
    X=              0.0049    Y=             -0.0113    Z=             -0.0027  Tot=              0.0126
 Quadrupole moment (field-independent basis, Debye-Ang):
   XX=           -111.7898   YY=            -91.6420   ZZ=            -63.5459
   XY=             -2.2183   XZ=             -2.1337   YZ=              0.7782

  Exact polarizability: 168.990  -5.932 124.042  -4.937 -10.194 124.201
 Approx polarizability: 165.797 -13.697 137.713   3.853 -15.265 139.133

                      1                      2                      3
                      A                      A                      A
 Frequencies --      7.7676                 9.4784                18.9662
 Red. masses --      6.2245                 4.6632                 6.6090
 Frc consts  --      0.0002                 0.0002                 0.0014
 IR Inten    --      5.0145                 0.0044                 1.7111

                      4                      5                      6
                      A                      A                      A
 Frequencies --     32.7660                37.6832                42.1565
 Red. masses --      6.1635                 3.5458                 3.0728
 Frc consts  --      0.0039                 0.0030                 0.0032
 IR Inten    --     12.9916                 5.7420                 0.1767

                      7                      8                      9
                      A                      A                      A
 Frequencies --     45.7224                50.1086                54.2793
 Red. masses --      5.5204                 3.9401                 4.7822
 Frc consts  --      0.0068                 0.0058                 0.0083
 IR Inten    --      0.0664                87.2995                 0.0010

                     10                     11                     12
                      A                      A                      A
 Frequencies --     74.6079                74.9956                82.3762
 Red. masses --      1.1444                 1.1561                 4.2419
 Frc consts  --      0.0038                 0.0038                 0.0170
 IR Inten    --    425.9923                62.1326                40.5405

                     13                     14                     15
                      A                      A                      A
 Frequencies --     82.7013                90.2139               103.8232
 Red. masses --      4.0938                 2.4029                 5.4780
 Frc consts  --      0.0165                 0.0115                 0.0348
 IR Inten    --      0.0407                26.9903                 0.0508

                     16                     17                     18
                      A                      A                      A
 Frequencies --    113.0212               120.6149               127.3327
 Red. masses --      2.8294                 1.7751                 4.0811
 Frc consts  --      0.0213                 0.0152                 0.0390
 IR Inten    --    172.6162                 0.3036                 0.0115

                     19                     20                     21
                      A                      A                      A
 Frequencies --    141.4272               152.1441               152.9364
 Red. masses --      2.2570                 1.3829                 5.7986
 Frc consts  --      0.0266                 0.0189                 0.0799
 IR Inten    --     95.9278                 0.0173                17.6654

                     22                     23                     24
                      A                      A                      A
 Frequencies --    162.9929               174.4733               227.3224
 Red. masses --      1.2148                 2.0250                 1.1361
 Frc consts  --      0.0190                 0.0363                 0.0346
 IR Inten    --      5.2765                 0.0014               254.4330

                     25                     26                     27
                      A                      A                      A
 Frequencies --    229.4819               271.5836               274.6815
 Red. masses --      1.4892                 4.6160                 3.1390
 Frc consts  --      0.0462                 0.2006                 0.1395
 IR Inten    --      0.1939                33.4559                 0.0011

                     28                     29                     30
                      A                      A                      A
 Frequencies --    292.2641               294.7200               338.2465
 Red. masses --      3.6181                 4.2553                 1.0834
 Frc consts  --      0.1821                 0.2178                 0.0730
 IR Inten    --     99.7895                 0.0003                 0.2407

                     31                     32                     33
                      A                      A                      A
 Frequencies --    339.1666               448.2517               455.3629
 Red. masses --      1.1150                 1.9862                 1.0515
 Frc consts  --      0.0756                 0.2351                 0.1285
 IR Inten    --    319.6514                 0.0084               497.9729

                     34                     35                     36
                      A                      A                      A
 Frequencies --    463.9940               468.1175               470.7255
 Red. masses --      1.4778                 1.0392                 1.3087
 Frc consts  --      0.1874                 0.1342                 0.1708
 IR Inten    --      0.0337               290.3359                 0.0178

                     37                     38                     39
                      A                      A                      A
 Frequencies --    579.8630               637.2263               647.9912
 Red. masses --      8.8435                 5.9095                 8.8222
 Frc consts  --      1.7520                 1.4138                 2.1826
 IR Inten    --     18.0482                 0.0000                20.1362

                     40                     41                     42
                      A                      A                      A
 Frequencies --    812.7565               841.1857               897.3957
 Red. masses --     11.5973                 6.3071                 6.5381
 Frc consts  --      4.5136                 2.6295                 3.1022
 IR Inten    --     72.0919                 0.0000               115.8518

                     43                     44                     45
                      A                      A                      A
 Frequencies --    921.1091              1010.4353              1024.2112
 Red. masses --      8.9781                 9.0142                 9.7800
 Frc consts  --      4.4880                 5.4224                 6.0446
 IR Inten    --      0.0000                50.6828                 0.0002

                     46                     47                     48
                      A                      A                      A
 Frequencies --   1167.3992              1167.7315              1209.2219
 Red. masses --      1.2701                 1.2693                 1.4771
 Frc consts  --      1.0198                 1.0198                 1.2726
 IR Inten    --      4.6714                 0.0044                45.8245

                     49                     50                     51
                      A                      A                      A
 Frequencies --   1209.4006              1289.4478              1307.6357
 Red. masses --      1.4556                 6.2151                 6.4159
 Frc consts  --      1.2544                 6.0884                 6.4637
 IR Inten    --      0.0069              1373.8770                 0.0003

                     52                     53                     54
                      A                      A                      A
 Frequencies --   1467.0506              1467.1897              1482.1970
 Red. masses --      1.1997                 1.1981                 1.0671
 Frc consts  --      1.5213                 1.5195                 1.3812
 IR Inten    --      0.3410                78.6647                48.8332

                     55                     56                     57
                      A                      A                      A
 Frequencies --   1482.3784              1489.1851              1489.2071
 Red. masses --      1.0703                 1.0478                 1.0479
 Frc consts  --      1.3858                 1.3691                 1.3693
 IR Inten    --      0.1107                36.2486                 4.2547

                     58                     59                     60
                      A                      A                      A
 Frequencies --   1616.5585              1616.8007              1630.5918
 Red. masses --      1.0795                 1.0821                 1.0804
 Frc consts  --      1.6621                 1.6666                 1.6925
 IR Inten    --    193.4090                 0.8108               256.3186

                     61                     62                     63
                      A                      A                      A
 Frequencies --   1630.8229              1670.3178              1784.2714
 Red. masses --      1.0795                13.7200                11.1135
 Frc consts  --      1.6915                22.5530                20.8460
 IR Inten    --      1.0505                 0.0000                 0.0010

                     64                     65                     66
                      A                      A                      A
 Frequencies --   1788.7711              3083.6055              3083.6604
 Red. masses --     11.1116                 1.0283                 1.0283
 Frc consts  --     20.9477                 5.7606                 5.7609
 IR Inten    --   1455.2979                42.6936                 0.0183

                     67                     68                     69
                      A                      A                      A
 Frequencies --   3182.1009              3182.1053              3209.8278
 Red. masses --      1.1100                 1.1100                 1.1088
 Frc consts  --      6.6221                 6.6221                 6.7306
 IR Inten    --      7.0961                 4.0851                11.4556

                     70                     71                     72
                      A                      A                      A
 Frequencies --   3209.8372              3702.7178              3703.7390
 Red. masses --      1.1088                 1.0539                 1.0537
 Frc consts  --      6.7306                 8.5129                 8.5165
 IR Inten    --      0.0527              1048.6479                 0.6160

                     73                     74                     75
                      A                      A                      A
 Frequencies --   3728.8985              3732.3675              3873.9670
 Red. masses --      1.0514                 1.0511                 1.0746
 Frc consts  --      8.6137                 8.6267                 9.5022
 IR Inten    --    379.7562                 0.0669               392.4246

                     76                     77                     78
                      A                      A                      A
 Frequencies --   3873.9798              3874.1382              3875.0923
 Red. masses --      1.0747                 1.0766                 1.0768
 Frc consts  --      9.5032                 9.5201                 9.5266
 IR Inten    --     75.5799               223.9365                 0.0516

 - Thermochemistry -
 -------------------
 Temperature   298.150 Kelvin.  Pressure   1.00000 Atm.
 Atom     1 has atomic number  7 and mass  14.00307

 Molecular mass:   218.07502 amu.
 Principal axes and moments of inertia in atomic units:
                           1         2         3
     Eigenvalues --  1842.318777590.657117867.80201
           X            0.99999   0.00436  -0.00099
           Y           -0.00437   0.99999  -0.00204
           Z            0.00098   0.00205   1.00000
 This molecule is an asymmetric top.
 Rotational symmetry number  1.
 Warning -- assumption of classical behavior for rotation
           may cause significant error
 Rotational temperatures (Kelvin)      0.04701     0.01141     0.01101
 Rotational constants (GHZ):           0.97960     0.23776     0.22938
 Zero-point vibrational energy     545382.9 (Joules/Mol)
                                  130.34964 (Kcal/Mol)
 Warning -- explicit consideration of  37 degrees of freedom as
           vibrations may cause significant error
 Vibrational temperatures:     11.18    13.64    27.29    47.14    54.22
          (Kelvin)             60.65    65.78    72.10    78.10   107.34
                              107.90   118.52   118.99   129.80   149.38
                              162.61   173.54   183.20   203.48   218.90
                              220.04   234.51   251.03   327.07   330.17
                              390.75   395.20   420.50   424.04   486.66
                              487.98   644.93   655.16   667.58   673.52
                              677.27   834.29   916.83   932.31  1169.37
                             1210.28  1291.15  1325.27  1453.79  1473.61
                             1679.63  1680.10  1739.80  1740.06  1855.23
                             1881.39  2110.76  2110.96  2132.55  2132.81
                             2142.60  2142.63  2325.86  2326.21  2346.05
                             2346.39  2403.21  2567.17  2573.64  4436.62
                             4436.69  4578.33  4578.33  4618.22  4618.23
                             5327.38  5328.85  5365.05  5370.04  5573.77
                             5573.79  5574.01  5575.39

 Zero-point correction=                           0.207725 (Hartree/Particle)
 Thermal correction to Energy=                    0.233958
 Thermal correction to Enthalpy=                  0.234903
 Thermal correction to Gibbs Free Energy=         0.143376
 Sum of electronic and zero-point Energies=           -872.018953
 Sum of electronic and thermal Energies=              -871.992720
 Sum of electronic and thermal Enthalpies=            -871.991776
 Sum of electronic and thermal Free Energies=         -872.083302

                     E (Thermal)             CV                S
                      KCal/Mol        Cal/Mol-Kelvin    Cal/Mol-Kelvin
 Total                  146.811             78.903            192.634
 Electronic               0.000              0.000              0.000
 Translational            0.889              2.981             42.042
 Rotational               0.889              2.981             33.064
 Vibrational            145.034             72.941            117.528
 Vibration     1          0.593              1.987              8.513
 Vibration     2          0.593              1.987              8.117
 Vibration     3          0.593              1.986              6.740
 Vibration     4          0.594              1.983              5.655
 Vibration     5          0.594              1.982              5.377
 Vibration     6          0.595              1.980              5.155
 Vibration     7          0.595              1.979              4.994
 Vibration     8          0.595              1.978              4.813
 Vibration     9          0.596              1.976              4.655
 Vibration    10          0.599              1.966              4.028
 Vibration    11          0.599              1.966              4.018
 Vibration    12          0.600              1.961              3.833
 Vibration    13          0.600              1.961              3.826
 Vibration    14          0.602              1.956              3.655
 Vibration    15          0.605              1.946              3.381
 Vibration    16          0.607              1.939              3.216
 Vibration    17          0.609              1.932              3.091
 Vibration    18          0.611              1.926              2.986
 Vibration    19          0.615              1.912              2.784
 Vibration    20          0.619              1.900              2.645
 Vibration    21          0.619              1.899              2.635
 Vibration    22          0.623              1.888              2.515
 Vibration    23          0.627              1.874              2.387
 Vibration    24          0.651              1.799              1.900
 Vibration    25          0.652              1.796              1.883
 Vibration    26          0.675              1.726              1.586
 Vibration    27          0.677              1.720              1.567
 Vibration    28          0.688              1.688              1.461
 Vibration    29          0.689              1.684              1.447
 Vibration    30          0.719              1.599              1.220
 Vibration    31          0.719              1.597              1.216
 Vibration    32          0.807              1.365              0.801
 Vibration    33          0.814              1.349              0.780
 Vibration    34          0.822              1.330              0.755
 Vibration    35          0.825              1.321              0.743
 Vibration    36          0.828              1.315              0.736
 Vibration    37          0.937              1.075              0.486

 Normal termination of Gaussian 09 at Fri Sep 25 02:05:55 2020.
