 Gaussian 09, Revision D.01,
 Gaussian 09:  ES64L-G09RevD.01 24-Apr-2013

 ----------------------------------------------------------------------
 # freq b3lyp/6-31+g(d,p) scrf=(cpcm,solvent=water) geom=connectivity e
 mpiricaldispersion=gd3
 ----------------------------------------------------------------------

 -------------------
 Title Card Required
 -------------------
 Symbolic Z-matrix:
 Charge =  0 Multiplicity = 1

                         Standard orientation:
 ---------------------------------------------------------------------
 Center     Atomic      Atomic             Coordinates (Angstroms)
 Number     Number       Type             X           Y           Z
 ---------------------------------------------------------------------
      1          6           0       -0.517552   -0.730621   -1.349336
      2          6           0       -1.678060   -1.669762   -0.960900
      3          6           0        0.244259   -2.874476   -0.519610
      4          6           0        0.701003   -1.619915   -1.224705
      5          1           0       -0.600497    0.106608   -2.026450
      6          1           0        1.721843   -1.299300   -1.368544
      7          6           0       -1.118125   -2.610657    0.112351
      8          1           0       -1.724919   -3.516778    0.193735
      9          1           0       -1.035640   -2.129259    1.087278
     10          6           0       -1.189113   -2.138995   -2.259723
     11          1           0       -1.614271   -1.897073   -3.224960
     12          6           0        0.093183   -2.844520   -2.014508
     13          1           0        0.654842   -3.413577   -2.741686
     14          1           0       -2.666225   -1.228775   -0.891504
     15          1           0        0.987589   -3.519440   -0.067887
     16          7           0        0.751488    0.001932    1.068009
     17          7           0       -0.095910    0.636729    0.301102
     18          6           0        2.090219    0.228140    0.753334
     19          6           0       -1.415524    0.643257    0.833894
     20          8           0       -1.791290    0.113466    1.868589
     21          8           0        2.980207   -0.272924    1.443421
     22          8           0       -2.192923    1.381765    0.033957
     23          8           0        2.337664    1.023293   -0.304814
     24          6           0        3.727369    1.269224   -0.620716
     25          1           0        3.713794    1.917360   -1.495693
     26          1           0        4.223500    1.766080    0.215413
     27          1           0        4.235659    0.330316   -0.851009
     28          6           0       -3.582809    1.510017    0.424960
     29          1           0       -4.065786    0.531033    0.437857
     30          1           0       -3.652704    1.970588    1.412675
     31          1           0       -4.032503    2.148106   -0.333349
     32          8           0       -1.553601    4.508194   -0.690542
     33          1           0       -0.913756    3.876509   -1.087902
     34          1           0       -1.990893    3.996430    0.001861
     35          8           0       -4.046608   -1.582748    2.310063
     36          1           0       -4.698969   -1.129995    2.860065
     37          1           0       -3.304758   -0.956878    2.223711
     38          8           0        0.208580    2.616100   -1.719422
     39          1           0        1.127475    2.884789   -1.846773
     40          1           0        0.237045    1.944851   -0.997391
     41          8           0        5.793482   -0.362938    1.561223
     42          1           0        4.818712   -0.317044    1.503733
     43          1           0        5.978234   -0.899016    2.342993
 ---------------------------------------------------------------------

 SCF Done:  E(RB3LYP) =  -1143.70527021     A.U. after   17 cycles

 The electronic state is 1-A.
 Alpha  occ. eigenvalues --  -19.22607 -19.21694 -19.17437 -19.16283 -19.16146
 Alpha  occ. eigenvalues --  -19.15781 -19.15309 -19.14790 -14.41705 -14.38519
 Alpha  occ. eigenvalues --  -10.36653 -10.35353 -10.26694 -10.25928 -10.25403
 Alpha  occ. eigenvalues --  -10.25004 -10.24602 -10.24331 -10.23941 -10.23050
 Alpha  occ. eigenvalues --  -10.20939  -1.14369  -1.12948  -1.05360  -1.03600
 Alpha  occ. eigenvalues --   -1.02226  -1.01573  -1.00905  -1.00409  -0.99656
 Alpha  occ. eigenvalues --   -0.98548  -0.82474  -0.81504  -0.76153  -0.74607
 Alpha  occ. eigenvalues --   -0.71718  -0.71033  -0.61236  -0.60697  -0.58407
 Alpha  occ. eigenvalues --   -0.57864  -0.57370  -0.56881  -0.55706  -0.54554
 Alpha  occ. eigenvalues --   -0.53800  -0.52985  -0.52118  -0.51359  -0.50492
 Alpha  occ. eigenvalues --   -0.50093  -0.49461  -0.48298  -0.47232  -0.47039
 Alpha  occ. eigenvalues --   -0.45737  -0.44613  -0.43809  -0.42970  -0.42554
 Alpha  occ. eigenvalues --   -0.41889  -0.41103  -0.40622  -0.39170  -0.39068
 Alpha  occ. eigenvalues --   -0.38588  -0.38476  -0.37831  -0.37281  -0.37045
 Alpha  occ. eigenvalues --   -0.36263  -0.33632  -0.33380  -0.32831  -0.32426
 Alpha  occ. eigenvalues --   -0.32187  -0.31943  -0.31378  -0.31064  -0.30971
 Alpha  occ. eigenvalues --   -0.30668  -0.27046  -0.22229
 Alpha virt. eigenvalues --   -0.13135  -0.02315  -0.00616   0.00334   0.00570
 Alpha virt. eigenvalues --    0.01127   0.01680   0.02372   0.02712   0.02989
 Alpha virt. eigenvalues --    0.03631   0.03789   0.04252   0.04363   0.05130

 Mulliken charges:
               1
     1  C   -0.133424
     2  C    0.113633
     3  C   -0.149059
     4  C    0.160094
     5  H    0.220322
     6  H    0.192345
     7  C   -0.309267
     8  H    0.171230
     9  H    0.190338
    10  C   -0.241158
    11  H    0.197718
    12  C   -0.266829
    13  H    0.182611
    14  H    0.189650
    15  H    0.175534
    16  N   -0.765985
    17  N    0.003270
    18  C    0.483625
    19  C    0.275023
    20  O   -0.454185
    21  O   -0.543247
    22  O   -0.135017
    23  O   -0.394158
    24  C   -0.166972
    25  H    0.166661
    26  H    0.174317
    27  H    0.172696
    28  C   -0.133236
    29  H    0.173097
    30  H    0.179631
    31  H    0.179218
    32  O   -0.806529
    33  H    0.442845
    34  H    0.377957
    35  O   -0.795587
    36  H    0.390384
    37  H    0.420160
    38  O   -0.814438
    39  H    0.397081
    40  H    0.474778
    41  O   -0.827065
    42  H    0.456744
    43  H    0.375196
 Sum of Mulliken charges =   0.00000

 Dipole moment (field-independent basis, Debye):
    X=             -3.8740    Y=             -6.4852    Z=             -7.4029  Tot=             10.5767
 Quadrupole moment (field-independent basis, Debye-Ang):
   XX=           -134.3272   YY=           -145.1312   ZZ=           -122.1674
   XY=              0.3951   XZ=            -10.1562   YZ=             22.4872

  Exact polarizability: 298.116  32.099 299.754  44.078  71.978 305.859
 Approx polarizability: 329.528  60.438 373.304  94.104 143.038 441.417

 ******    1 imaginary frequencies (negative Signs) ******

                      1                      2                      3
                      A                      A                      A
 Frequencies --   -382.5018                15.9602                20.0474
 Red. masses --      9.6990                 5.6365                 7.9954
 Frc consts  --      0.8361                 0.0008                 0.0019
 IR Inten    --   1876.8341                 0.6988                11.8626

                      4                      5                      6
                      A                      A                      A
 Frequencies --     25.2807                29.8540                34.0197
 Red. masses --      5.9499                 5.6706                 6.9611
 Frc consts  --      0.0022                 0.0030                 0.0047
 IR Inten    --      7.7746                 7.5074                 4.2829

                      7                      8                      9
                      A                      A                      A
 Frequencies --     45.7599                53.5115                57.5439
 Red. masses --      4.2503                 5.7007                 5.5537
 Frc consts  --      0.0052                 0.0096                 0.0108
 IR Inten    --      3.7989                 0.3278                 3.8029

                     10                     11                     12
                      A                      A                      A
 Frequencies --     64.6374                73.9284                75.0199
 Red. masses --      5.4430                 2.3719                 1.4566
 Frc consts  --      0.0134                 0.0076                 0.0048
 IR Inten    --      1.8257                72.3780               146.2870

                     13                     14                     15
                      A                      A                      A
 Frequencies --     77.8568                85.4478                94.1711
 Red. masses --      4.3970                 4.7314                 1.4978
 Frc consts  --      0.0157                 0.0204                 0.0078
 IR Inten    --     13.3124                12.6600               166.9224

                     16                     17                     18
                      A                      A                      A
 Frequencies --    100.7694               118.5963               140.7606
 Red. masses --      2.2322                 4.2218                 4.4085
 Frc consts  --      0.0134                 0.0350                 0.0515
 IR Inten    --     35.6266                 7.6060                13.5327

                     19                     20                     21
                      A                      A                      A
 Frequencies --    148.9830               150.1269               161.4597
 Red. masses --      4.4742                 2.9897                 4.3290
 Frc consts  --      0.0585                 0.0397                 0.0665
 IR Inten    --      9.4944                 3.9072                 8.4490

                     22                     23                     24
                      A                      A                      A
 Frequencies --    166.5377               172.1812               185.3411
 Red. masses --      1.9482                 2.3989                 2.5922
 Frc consts  --      0.0318                 0.0419                 0.0525
 IR Inten    --      0.3081                37.3061                22.2086

                     25                     26                     27
                      A                      A                      A
 Frequencies --    187.7279               195.6930               207.4314
 Red. masses --      1.2285                 2.1358                 1.6676
 Frc consts  --      0.0255                 0.0482                 0.0423
 IR Inten    --     52.9270                80.7563                34.9370

                     28                     29                     30
                      A                      A                      A
 Frequencies --    239.6519               261.3966               266.4270
 Red. masses --      5.3205                 4.1965                 6.7573
 Frc consts  --      0.1800                 0.1689                 0.2826
 IR Inten    --     15.0713                 1.4354                49.3117

                     31                     32                     33
                      A                      A                      A
 Frequencies --    283.6188               322.3594               328.5388
 Red. masses --      1.1186                 1.0936                 3.9478
 Frc consts  --      0.0530                 0.0670                 0.2511
 IR Inten    --    217.4176               130.1696                13.0594

                     34                     35                     36
                      A                      A                      A
 Frequencies --    339.4368               361.7165               389.3442
 Red. masses --      5.7297                 1.0943                 1.1495
 Frc consts  --      0.3890                 0.0844                 0.1027
 IR Inten    --     42.6033                43.4938               198.7281

                     37                     38                     39
                      A                      A                      A
 Frequencies --    409.0801               434.1431               444.0003
 Red. masses --      4.7964                 2.5288                 3.2787
 Frc consts  --      0.4729                 0.2808                 0.3808
 IR Inten    --    128.8849                17.3797                59.5913

                     40                     41                     42
                      A                      A                      A
 Frequencies --    471.2068               500.1833               578.5460
 Red. masses --      1.2398                 2.9829                 1.0588
 Frc consts  --      0.1622                 0.4397                 0.2088
 IR Inten    --    186.4503                 8.5543               221.8693

                     43                     44                     45
                      A                      A                      A
 Frequencies --    578.8523               602.8175               624.5339
 Red. masses --      1.0370                 7.6132                 8.3340
 Frc consts  --      0.2047                 1.6300                 1.9152
 IR Inten    --    168.5094               149.7378               143.1610

                     46                     47                     48
                      A                      A                      A
 Frequencies --    639.8182               667.7279               689.5401
 Red. masses --      4.2901                 1.0515                 7.0808
 Frc consts  --      1.0347                 0.2762                 1.9836
 IR Inten    --     30.4498               192.8367                18.1278

                     49                     50                     51
                      A                      A                      A
 Frequencies --    734.7953               764.1835               774.6523
 Red. masses --      5.9032                 3.6573                 4.0190
 Frc consts  --      1.8779                 1.2584                 1.4209
 IR Inten    --      2.9011               147.1121                13.3348

                     52                     53                     54
                      A                      A                      A
 Frequencies --    783.3552               788.9018               795.9580
 Red. masses --      3.5669                 3.2915                 2.4818
 Frc consts  --      1.2896                 1.2070                 0.9264
 IR Inten    --     16.1297                55.8898                58.9577

                     55                     56                     57
                      A                      A                      A
 Frequencies --    811.3194               820.1673               829.7950
 Red. masses --      1.8094                 1.5917                 1.4939
 Frc consts  --      0.7017                 0.6308                 0.6061
 IR Inten    --      6.5471                38.2494               351.3431

                     58                     59                     60
                      A                      A                      A
 Frequencies --    838.9554               894.2051               901.2693
 Red. masses --      1.8825                 4.0638                 1.7606
 Frc consts  --      0.7806                 1.9145                 0.8426
 IR Inten    --    248.5809                 4.3118                 7.7152

                     61                     62                     63
                      A                      A                      A
 Frequencies --    926.8535               957.9658               966.2294
 Red. masses --      1.8624                 1.7439                 7.2750
 Frc consts  --      0.9427                 0.9429                 4.0017
 IR Inten    --      1.2612                12.0921                37.8392

                     64                     65                     66
                      A                      A                      A
 Frequencies --    982.7712              1008.5245              1025.7948
 Red. masses --      1.4121                 1.5284                 2.0081
 Frc consts  --      0.8036                 0.9159                 1.2450
 IR Inten    --     47.4646                 6.2939               120.7796

                     67                     68                     69
                      A                      A                      A
 Frequencies --   1040.5839              1054.7388              1059.3540
 Red. masses --      1.3711                 6.8164                 1.2439
 Frc consts  --      0.8747                 4.4678                 0.8224
 IR Inten    --     24.6532                34.9718                13.4073

                     70                     71                     72
                      A                      A                      A
 Frequencies --   1070.9700              1076.5002              1079.1523
 Red. masses --      1.6533                 7.8726                 1.2826
 Frc consts  --      1.1173                 5.3752                 0.8800
 IR Inten    --      7.8721               199.6681                 4.8508

                     73                     74                     75
                      A                      A                      A
 Frequencies --   1114.6927              1173.0201              1176.6332
 Red. masses --      1.3636                 1.2683                 1.2657
 Frc consts  --      0.9983                 1.0282                 1.0325
 IR Inten    --     24.2879                 1.9443                 9.0841

                     76                     77                     78
                      A                      A                      A
 Frequencies --   1191.5583              1206.9253              1211.9099
 Red. masses --      1.2187                 1.4823                 1.6067
 Frc consts  --      1.0195                 1.2722                 1.3904
 IR Inten    --     86.7646               109.7144               130.2486

                     79                     80                     81
                      A                      A                      A
 Frequencies --   1227.2233              1254.1002              1264.9120
 Red. masses --      3.4402                 1.7939                 1.6674
 Frc consts  --      3.0526                 1.6623                 1.5719
 IR Inten    --   1277.9325               296.6161               123.0017

                     82                     83                     84
                      A                      A                      A
 Frequencies --   1272.6194              1285.6916              1302.2836
 Red. masses --      4.0786                 1.8872                 2.0234
 Frc consts  --      3.8918                 1.8380                 2.0218
 IR Inten    --   1073.8189                10.1180               199.5168

                     85                     86                     87
                      A                      A                      A
 Frequencies --   1327.6930              1371.7425              1373.7012
 Red. masses --      4.5731                 4.8060                 2.1961
 Frc consts  --      4.7496                 5.3281                 2.4417
 IR Inten    --    333.3090               311.3209                90.3692

                     88                     89                     90
                      A                      A                      A
 Frequencies --   1405.4577              1474.5902              1475.6004
 Red. masses --      2.3733                 1.1727                 1.1823
 Frc consts  --      2.7620                 1.5024                 1.5168
 IR Inten    --     24.8320                45.0566                81.2108

                     91                     92                     93
                      A                      A                      A
 Frequencies --   1484.1783              1487.5870              1494.1971
 Red. masses --      1.0451                 1.0577                 1.0947
 Frc consts  --      1.3563                 1.3790                 1.4400
 IR Inten    --     13.6753                13.7631                30.6128

                     94                     95                     96
                      A                      A                      A
 Frequencies --   1494.6540              1497.6580              1627.7408
 Red. masses --      1.0606                 1.0584                 1.0890
 Frc consts  --      1.3960                 1.3987                 1.6999
 IR Inten    --      8.8242                17.6956               135.0757

                     97                     98                     99
                      A                      A                      A
 Frequencies --   1637.3919              1643.2014              1664.2411
 Red. masses --      1.1037                 1.1196                 1.1031
 Frc consts  --      1.7435                 1.7811                 1.8001
 IR Inten    --    277.4888               135.1413               182.7276

                    100                    101                    102
                      A                      A                      A
 Frequencies --   1675.9520              1724.6668              3067.4127
 Red. masses --      6.5598                 7.8168                 1.0292
 Frc consts  --     10.8558                13.6991                 5.7054
 IR Inten    --   1232.3717               621.1210                46.8974

                    103                    104                    105
                      A                      A                      A
 Frequencies --   3069.4038              3089.8426              3153.4093
 Red. masses --      1.0297                 1.0632                 1.1085
 Frc consts  --      5.7155                 5.9806                 6.4943
 IR Inten    --     32.4799                35.8916                21.9728

                    106                    107                    108
                      A                      A                      A
 Frequencies --   3155.4749              3160.9950              3181.4143
 Red. masses --      1.1088                 1.1037                 1.1073
 Frc consts  --      6.5045                 6.4978                 6.6032
 IR Inten    --     16.9190                 1.5433                16.3368

                    109                    110                    111
                      A                      A                      A
 Frequencies --   3190.9293              3219.6644              3231.0866
 Red. masses --      1.1073                 1.0921                 1.0936
 Frc consts  --      6.6430                 6.6700                 6.7268
 IR Inten    --     10.8475                 3.1135                 1.5203

                    112                    113                    114
                      A                      A                      A
 Frequencies --   3253.9981              3262.9415              3270.2257
 Red. masses --      1.0919                 1.0977                 1.0919
 Frc consts  --      6.8121                 6.8855                 6.8803
 IR Inten    --      8.1431                 8.9735                 8.3071

                    115                    116                    117
                      A                      A                      A
 Frequencies --   3277.1619              3420.4844              3509.9903
 Red. masses --      1.0969                 1.0634                 1.0616
 Frc consts  --      6.9411                 7.3304                 7.7057
 IR Inten    --      5.8602              1722.5100               688.0653

                    118                    119                    120
                      A                      A                      A
 Frequencies --   3609.0502              3672.3041              3868.9611
 Red. masses --      1.0588                 1.0558                 1.0701
 Frc consts  --      8.1258                 8.3886                 9.4378
 IR Inten    --   1168.8080               531.1069               143.4952

                    121                    122                    123
                      A                      A                      A
 Frequencies --   3869.0827              3871.0381              3873.3959
 Red. masses --      1.0674                 1.0728                 1.0673
 Frc consts  --      9.4143                 9.4715                 9.4349
 IR Inten    --    175.3154               161.5240                41.0607

 - Thermochemistry -
 -------------------
 Temperature   298.150 Kelvin.  Pressure   1.00000 Atm.
 Atom     1 has atomic number  6 and mass  12.00000

 Molecular mass:   310.13762 amu.
 Principal axes and moments of inertia in atomic units:
                           1         2         3
     Eigenvalues --  5819.161268649.56255**********
           X            0.99996  -0.00223  -0.00842
           Y            0.00216   0.99997  -0.00801
           Z            0.00844   0.00800   0.99993
 This molecule is an asymmetric top.
 Rotational symmetry number  1.
 Warning -- assumption of classical behavior for rotation
           may cause significant error
 Rotational temperatures (Kelvin)      0.01488     0.01001     0.00811
 Rotational constants (GHZ):           0.31014     0.20865     0.16908
    1 imaginary frequencies ignored.
 Zero-point vibrational energy     890791.3 (Joules/Mol)
                                  212.90422 (Kcal/Mol)
 Warning -- explicit consideration of  43 degrees of freedom as
           vibrations may cause significant error
 Vibrational temperatures:     22.96    28.84    36.37    42.95    48.95
          (Kelvin)             65.84    76.99    82.79    93.00   106.37
                              107.94   112.02   122.94   135.49   144.98
                              170.63   202.52   214.35   216.00   232.30
                              239.61   247.73   266.66   270.10   281.56
                              298.45   344.81   376.09   383.33   408.06
                              463.80   472.69   488.37   520.43   560.18
                              588.57   624.63   638.82   677.96   719.65
                              832.40   832.84   867.32   898.56   920.55
                              960.71   992.09  1057.21  1099.49  1114.55
                             1127.07  1135.05  1145.20  1167.31  1180.04
                             1193.89  1207.07  1286.56  1296.72  1333.53
                             1378.30  1390.19  1413.99  1451.04  1475.89
                             1497.17  1517.53  1524.17  1540.88  1548.84
                             1552.66  1603.79  1687.71  1692.91  1714.38
                             1736.49  1743.67  1765.70  1804.37  1819.92
                             1831.01  1849.82  1873.69  1910.25  1973.63
                             1976.45  2022.14  2121.60  2123.06  2135.40
                             2140.30  2149.81  2150.47  2154.79  2341.95
                             2355.84  2364.20  2394.47  2411.32  2481.41
                             4413.32  4416.18  4445.59  4537.05  4540.02
                             4547.96  4577.34  4591.03  4632.37  4648.81
                             4681.77  4694.64  4705.12  4715.10  4921.31
                             5050.09  5192.61  5283.62  5566.57  5566.74
                             5569.55  5572.95

 Zero-point correction=                           0.339284 (Hartree/Particle)
 Thermal correction to Energy=                    0.368864
 Thermal correction to Enthalpy=                  0.369808
 Thermal correction to Gibbs Free Energy=         0.274175
 Sum of electronic and zero-point Energies=          -1143.365986
 Sum of electronic and thermal Energies=             -1143.336406
 Sum of electronic and thermal Enthalpies=           -1143.335462
 Sum of electronic and thermal Free Energies=        -1143.431095

                     E (Thermal)             CV                S
                      KCal/Mol        Cal/Mol-Kelvin    Cal/Mol-Kelvin
 Total                  231.466            100.229            201.277
 Electronic               0.000              0.000              0.000
 Translational            0.889              2.981             43.092
 Rotational               0.889              2.981             34.640
 Vibrational            229.688             94.267            123.545
 Vibration     1          0.593              1.986              7.082
 Vibration     2          0.593              1.986              6.630
 Vibration     3          0.593              1.985              6.169
 Vibration     4          0.594              1.984              5.839
 Vibration     5          0.594              1.983              5.580
 Vibration     6          0.595              1.979              4.993
 Vibration     7          0.596              1.976              4.683
 Vibration     8          0.596              1.974              4.540
 Vibration     9          0.597              1.971              4.310
 Vibration    10          0.599              1.966              4.046
 Vibration    11          0.599              1.966              4.017
 Vibration    12          0.599              1.964              3.944
 Vibration    13          0.601              1.959              3.762
 Vibration    14          0.603              1.953              3.572
 Vibration    15          0.604              1.949              3.439
 Vibration    16          0.609              1.934              3.123
 Vibration    17          0.615              1.913              2.794
 Vibration    18          0.618              1.904              2.685
 Vibration    19          0.618              1.903              2.671
 Vibration    20          0.622              1.890              2.533
 Vibration    21          0.624              1.884              2.474
 Vibration    22          0.626              1.877              2.412
 Vibration    23          0.631              1.860              2.274
 Vibration    24          0.632              1.857              2.250
 Vibration    25          0.636              1.846              2.173
 Vibration    26          0.641              1.829              2.066
 Vibration    27          0.657              1.780              1.805
 Vibration    28          0.669              1.743              1.652
 Vibration    29          0.672              1.735              1.619
 Vibration    30          0.682              1.704              1.512
 Vibration    31          0.707              1.631              1.298
 Vibration    32          0.712              1.618              1.267
 Vibration    33          0.719              1.597              1.215
 Vibration    34          0.736              1.551              1.115
 Vibration    35          0.757              1.493              1.003
 Vibration    36          0.773              1.451              0.930
 Vibration    37          0.795              1.396              0.845
 Vibration    38          0.804              1.374              0.814
 Vibration    39          0.828              1.314              0.734
 Vibration    40          0.856              1.250              0.658
 Vibration    41          0.935              1.078              0.488
 Vibration    42          0.935              1.077              0.487
 Vibration    43          0.961              1.026              0.445

 Optimization completed on the basis of negligible forces.
    -- Stationary point found.
 Normal termination of Gaussian 09 at Thu Sep 24 16:03:39 2020.
