 Gaussian 09, Revision D.01,
 Gaussian 09:  ES64L-G09RevD.01 24-Apr-2013

 ----------------------------------------------------------------------
 # freq scrf=(cpcm,solvent=toluene) geom=connectivity def2svp empirical
 dispersion=gd3 m062x
 ----------------------------------------------------------------------

 -------------------
 Title Card Required
 -------------------
 Symbolic Z-matrix:
 Charge =  0 Multiplicity = 1

                         Standard orientation:
 ---------------------------------------------------------------------
 Center     Atomic      Atomic             Coordinates (Angstroms)
 Number     Number       Type             X           Y           Z
 ---------------------------------------------------------------------
      1          6           0       -0.770395    0.976003    1.052385
      2          6           0       -2.010321    1.520605    0.273488
      3          6           0       -0.262476    2.891498   -0.321453
      4          6           0        0.274972    2.048074    0.804095
      5          1           0       -0.831205    0.386965    1.966095
      6          1           0        1.319592    1.979170    1.098773
      7          6           0       -1.436751    2.180292   -0.969507
      8          1           0       -2.164898    2.872675   -1.414581
      9          1           0       -1.110294    1.445831   -1.717665
     10          6           0       -1.784442    2.388616    1.406142
     11          1           0       -2.301410    2.332776    2.362230
     12          6           0       -0.620756    3.260282    1.085519
     13          1           0       -0.315827    4.149395    1.630797
     14          1           0       -2.874778    0.860025    0.217763
     15          1           0        0.436220    3.510014   -0.882328
     16          7           0        0.716398   -0.026514   -0.946924
     17          7           0       -0.060843   -0.498219   -0.032284
     18          6           0        2.032925    0.126319   -0.533930
     19          6           0       -1.236093   -1.138635   -0.526794
     20          8           0       -1.409215   -1.447764   -1.676718
     21          8           0        2.881956    0.599891   -1.258306
     22          8           0       -2.058634   -1.406331    0.470058
     23          8           0        2.305033   -0.310558    0.710246
     24          6           0        3.641451   -0.121886    1.163421
     25          1           0        3.723787   -0.662758    2.111802
     26          1           0        4.362439   -0.503181    0.430316
     27          1           0        3.837342    0.948350    1.327178
     28          6           0       -3.122652   -2.309176    0.171002
     29          1           0       -3.791514   -1.867673   -0.578807
     30          1           0       -2.691637   -3.252392   -0.186587
     31          1           0       -3.655466   -2.463195    1.114007
     32          8           0       -0.300196   -3.664466    0.400140
     33          1           0       -0.142331   -3.158585    1.218347
     34          1           0        0.460576   -3.445375   -0.149812
     35          8           0       -3.755584    0.117427   -1.900685
     36          1           0       -3.905101    0.729665   -2.629574
     37          1           0       -3.028520   -0.448403   -2.202902
     38          8           0        0.335550   -1.796674    2.422409
     39          1           0        1.221750   -1.861559    2.796285
     40          1           0        0.459576   -1.279311    1.599786
     41          8           0        5.527353   -0.392724   -1.583246
     42          1           0        4.694151    0.105536   -1.565110
     43          1           0        5.265772   -1.227193   -1.988948
 ---------------------------------------------------------------------

 SCF Done:  E(RM062X) =  -1142.22211150     A.U. after   16 cycles

 The electronic state is 1-A.
 Alpha  occ. eigenvalues --  -19.68292 -19.68195 -19.63322 -19.62251 -19.62134
 Alpha  occ. eigenvalues --  -19.61913 -19.60113 -19.60047 -14.83767 -14.78394
 Alpha  occ. eigenvalues --  -10.71707 -10.70336 -10.62753 -10.62083 -10.60860
 Alpha  occ. eigenvalues --  -10.60250 -10.60129 -10.60023 -10.59640 -10.58927
 Alpha  occ. eigenvalues --  -10.57136  -1.24517  -1.23221  -1.14588  -1.12850
 Alpha  occ. eigenvalues --   -1.11584  -1.10037  -1.09913  -1.08648  -1.08053
 Alpha  occ. eigenvalues --   -1.07806  -0.91100  -0.89225  -0.84730  -0.81994
 Alpha  occ. eigenvalues --   -0.79043  -0.78023  -0.67968  -0.67174  -0.65693
 Alpha  occ. eigenvalues --   -0.65360  -0.64313  -0.63809  -0.62851  -0.61196
 Alpha  occ. eigenvalues --   -0.60339  -0.58811  -0.58018  -0.57505  -0.57171
 Alpha  occ. eigenvalues --   -0.56481  -0.55889  -0.54724  -0.54123  -0.53457
 Alpha  occ. eigenvalues --   -0.51806  -0.50530  -0.49628  -0.48889  -0.48488
 Alpha  occ. eigenvalues --   -0.47743  -0.46580  -0.46051  -0.45550  -0.44522
 Alpha  occ. eigenvalues --   -0.44456  -0.44143  -0.43442  -0.43152  -0.43037
 Alpha  occ. eigenvalues --   -0.41558  -0.39019  -0.38555  -0.38199  -0.38041
 Alpha  occ. eigenvalues --   -0.37764  -0.37400  -0.37218  -0.36722  -0.36534
 Alpha  occ. eigenvalues --   -0.35948  -0.31648  -0.25849
 Alpha virt. eigenvalues --   -0.07917   0.05171   0.06880   0.07546   0.08960
 Alpha virt. eigenvalues --    0.09448   0.10573   0.11870   0.12447   0.13060
 Alpha virt. eigenvalues --    0.14109   0.14555   0.14813   0.15779   0.16072

 Mulliken charges:
               1
     1  C   -0.058515
     2  C   -0.192823
     3  C   -0.135034
     4  C   -0.094140
     5  H    0.095283
     6  H    0.076561
     7  C    0.230445
     8  H    0.065135
     9  H    0.071676
    10  C    0.112149
    11  H    0.089012
    12  C   -0.029447
    13  H    0.067123
    14  H    0.084131
    15  H    0.076201
    16  N   -0.190867
    17  N   -0.247415
    18  C    0.306945
    19  C    0.326432
    20  O   -0.271241
    21  O   -0.315558
    22  O   -0.335524
    23  O   -0.380440
    24  C    0.119383
    25  H    0.056534
    26  H    0.037592
    27  H    0.056249
    28  C    0.118575
    29  H    0.054495
    30  H    0.071623
    31  H    0.061805
    32  O   -0.349327
    33  H    0.169657
    34  H    0.174143
    35  O   -0.338282
    36  H    0.186842
    37  H    0.189400
    38  O   -0.362203
    39  H    0.187668
    40  H    0.207074
    41  O   -0.354509
    42  H    0.186858
    43  H    0.176336
 Sum of Mulliken charges =   0.00000

 Dipole moment (field-independent basis, Debye):
    X=             -3.6296    Y=              5.7274    Z=              4.4470  Tot=              8.1088
 Quadrupole moment (field-independent basis, Debye-Ang):
   XX=           -138.1882   YY=           -118.3446   ZZ=           -119.5218
   XY=            -14.9267   XZ=             13.6894   YZ=              6.0026

  Exact polarizability: 233.276 -34.492 220.603 -25.653  29.705 181.077
 Approx polarizability: 242.360 -44.313 233.483 -48.680  46.037 223.675

 ******    1 imaginary frequencies (negative Signs) ******

                      1                      2                      3
                      A                      A                      A
 Frequencies --   -579.6938                24.2444                25.4336
 Red. masses --      9.1958                 6.2753                 6.2818
 Frc consts  --      1.8207                 0.0022                 0.0024
 IR Inten    --   2106.1855                 0.3254                 3.6156

                      4                      5                      6
                      A                      A                      A
 Frequencies --     48.2460                57.0619                64.8103
 Red. masses --      4.6660                 5.2247                 5.1330
 Frc consts  --      0.0064                 0.0100                 0.0127
 IR Inten    --      0.9454                 2.6064                 0.3737

                      7                      8                      9
                      A                      A                      A
 Frequencies --     72.1756                77.9934                85.4835
 Red. masses --      4.3377                 5.6879                 4.1521
 Frc consts  --      0.0133                 0.0204                 0.0179
 IR Inten    --      1.5083                 7.0256                 0.6663

                     10                     11                     12
                      A                      A                      A
 Frequencies --     94.0895               109.4700               111.3490
 Red. masses --      5.8959                 6.2292                 6.6649
 Frc consts  --      0.0308                 0.0440                 0.0487
 IR Inten    --      8.5993                 3.3912                25.4953

                     13                     14                     15
                      A                      A                      A
 Frequencies --    129.4344               140.4682               152.1923
 Red. masses --      7.0107                 4.5898                 2.8587
 Frc consts  --      0.0692                 0.0534                 0.0390
 IR Inten    --      9.9579                 8.9542                64.5301

                     16                     17                     18
                      A                      A                      A
 Frequencies --    164.0761               170.8374               177.5843
 Red. masses --      4.4317                 3.9355                 3.4203
 Frc consts  --      0.0703                 0.0677                 0.0636
 IR Inten    --      4.3078                16.5441                39.6165

                     19                     20                     21
                      A                      A                      A
 Frequencies --    188.4500               192.8143               201.0244
 Red. masses --      2.0967                 2.7373                 3.1642
 Frc consts  --      0.0439                 0.0600                 0.0753
 IR Inten    --     12.2072                31.4946                10.3585

                     22                     23                     24
                      A                      A                      A
 Frequencies --    208.8763               210.4208               220.6915
 Red. masses --      1.7359                 2.1657                 1.7747
 Frc consts  --      0.0446                 0.0565                 0.0509
 IR Inten    --     27.3526                20.7382                10.4145

                     25                     26                     27
                      A                      A                      A
 Frequencies --    227.8550               238.2373               250.6665
 Red. masses --      2.0277                 1.0965                 1.8971
 Frc consts  --      0.0620                 0.0367                 0.0702
 IR Inten    --      2.3091               152.9384               177.6862

                     28                     29                     30
                      A                      A                      A
 Frequencies --    257.8091               283.7991               288.2245
 Red. masses --      1.3581                 1.3572                 1.2091
 Frc consts  --      0.0532                 0.0644                 0.0592
 IR Inten    --     15.6676                62.5332                53.2653

                     31                     32                     33
                      A                      A                      A
 Frequencies --    302.0408               318.0804               320.4184
 Red. masses --      2.4259                 1.1194                 2.2520
 Frc consts  --      0.1304                 0.0667                 0.1362
 IR Inten    --     91.1560                78.5926                57.1122

                     34                     35                     36
                      A                      A                      A
 Frequencies --    334.4066               348.1463               373.2541
 Red. masses --      1.8296                 5.1077                 2.8940
 Frc consts  --      0.1205                 0.3648                 0.2375
 IR Inten    --     29.8198                 9.5590                54.7218

                     37                     38                     39
                      A                      A                      A
 Frequencies --    384.9681               450.4381               459.8660
 Red. masses --      1.1793                 4.8930                 2.1278
 Frc consts  --      0.1030                 0.5849                 0.2651
 IR Inten    --     81.6376                19.5705                 6.0849

                     40                     41                     42
                      A                      A                      A
 Frequencies --    478.5920               512.7872               536.0247
 Red. masses --      5.0432                 1.1447                 2.9495
 Frc consts  --      0.6806                 0.1773                 0.4993
 IR Inten    --     47.1166               267.8616                 4.4855

                     43                     44                     45
                      A                      A                      A
 Frequencies --    622.4761               629.4755               646.5373
 Red. masses --      1.0724                 5.8416                 5.1058
 Frc consts  --      0.2448                 1.3638                 1.2575
 IR Inten    --    309.8149                63.1165                14.0418

                     46                     47                     48
                      A                      A                      A
 Frequencies --    684.4176               695.4832               725.4748
 Red. masses --      1.0963                 5.2368                 5.0957
 Frc consts  --      0.3026                 1.4924                 1.5802
 IR Inten    --    354.8127                12.4699                48.2674

                     49                     50                     51
                      A                      A                      A
 Frequencies --    750.7154               773.1159               791.4110
 Red. masses --      3.3165                 4.8343                 3.2752
 Frc consts  --      1.1012                 1.7025                 1.2086
 IR Inten    --     83.8691                18.1235                19.1178

                     52                     53                     54
                      A                      A                      A
 Frequencies --    806.8859               811.3483               830.4550
 Red. masses --      2.5355                 2.3127                 3.0051
 Frc consts  --      0.9726                 0.8970                 1.2211
 IR Inten    --     64.3282                16.4521                41.5155

                     55                     56                     57
                      A                      A                      A
 Frequencies --    836.5532               853.6785               859.1148
 Red. masses --      1.5870                 1.4386                 1.5727
 Frc consts  --      0.6543                 0.6177                 0.6839
 IR Inten    --     21.5063                11.7979                56.2921

                     58                     59                     60
                      A                      A                      A
 Frequencies --    900.2636               940.9732               946.9300
 Red. masses --      2.6766                 2.7612                 1.6875
 Frc consts  --      1.2781                 1.4405                 0.8915
 IR Inten    --    170.1756                16.7644                 1.9616

                     61                     62                     63
                      A                      A                      A
 Frequencies --    949.1235               971.6248               977.1579
 Red. masses --      2.3038                 1.6208                 1.4251
 Frc consts  --      1.2227                 0.9015                 0.8017
 IR Inten    --     20.0812                 5.8889                54.9429

                     64                     65                     66
                      A                      A                      A
 Frequencies --   1011.2262              1030.4851              1039.0993
 Red. masses --      4.3716                 1.6163                 1.4815
 Frc consts  --      2.6338                 1.0112                 0.9425
 IR Inten    --     44.7278                14.1593                16.3595

                     67                     68                     69
                      A                      A                      A
 Frequencies --   1049.1637              1053.3919              1071.2752
 Red. masses --      1.3188                 1.3211                 1.4686
 Frc consts  --      0.8553                 0.8637                 0.9930
 IR Inten    --      3.2204                 2.4758                12.2443

                     70                     71                     72
                      A                      A                      A
 Frequencies --   1082.5432              1110.9279              1128.5547
 Red. masses --      1.7196                 1.6105                 3.9708
 Frc consts  --      1.1873                 1.1711                 2.9797
 IR Inten    --      6.4074                26.2673                12.4325

                     73                     74                     75
                      A                      A                      A
 Frequencies --   1156.6663              1182.8055              1184.9440
 Red. masses --      7.6015                 1.2044                 1.2746
 Frc consts  --      5.9919                 0.9928                 1.0545
 IR Inten    --    141.1806                12.3782                 0.9253

                     76                     77                     78
                      A                      A                      A
 Frequencies --   1191.4037              1228.7113              1232.8851
 Red. masses --      1.2922                 1.5184                 1.5569
 Frc consts  --      1.0807                 1.3506                 1.3943
 IR Inten    --     14.8734                52.4392                 3.8890

                     79                     80                     81
                      A                      A                      A
 Frequencies --   1235.7917              1246.0611              1301.4289
 Red. masses --      1.5285                 1.3742                 3.7173
 Frc consts  --      1.3753                 1.2571                 3.7095
 IR Inten    --     49.6033                25.4617               457.4395

                     82                     83                     84
                      A                      A                      A
 Frequencies --   1311.1059              1313.5862              1337.4830
 Red. masses --      2.6308                 2.4958                 4.9325
 Frc consts  --      2.6645                 2.5373                 5.1987
 IR Inten    --    490.5946                60.9222               932.1408

                     85                     86                     87
                      A                      A                      A
 Frequencies --   1361.3636              1396.9714              1435.3614
 Red. masses --      2.5186                 4.3351                 3.0319
 Frc consts  --      2.7502                 4.9845                 3.6804
 IR Inten    --     29.5084                53.8125                23.9939

                     88                     89                     90
                      A                      A                      A
 Frequencies --   1457.5363              1465.6784              1467.5654
 Red. masses --      1.7065                 1.1597                 1.1269
 Frc consts  --      2.1359                 1.4678                 1.4300
 IR Inten    --    303.2201                46.9646                59.0232

                     91                     92                     93
                      A                      A                      A
 Frequencies --   1474.1170              1480.9812              1482.9706
 Red. masses --      2.3016                 1.1188                 1.1227
 Frc consts  --      2.9467                 1.4457                 1.4547
 IR Inten    --    375.6229                33.0911                40.9963

                     94                     95                     96
                      A                      A                      A
 Frequencies --   1498.9391              1508.5634              1605.9598
 Red. masses --      1.1489                 1.0617                 1.0850
 Frc consts  --      1.5209                 1.4235                 1.6487
 IR Inten    --     28.4396                18.9242               117.7015

                     97                     98                     99
                      A                      A                      A
 Frequencies --   1613.0434              1644.0258              1650.7317
 Red. masses --      1.0831                 1.0809                 1.0754
 Frc consts  --      1.6605                 1.7212                 1.7265
 IR Inten    --    148.9050               150.1969               101.8946

                    100                    101                    102
                      A                      A                      A
 Frequencies --   1821.8269              1865.2261              3072.3435
 Red. masses --     11.5051                11.0619                 1.0341
 Frc consts  --     22.4986                22.6747                 5.7514
 IR Inten    --   1006.6061               480.0379                32.6754

                    103                    104                    105
                      A                      A                      A
 Frequencies --   3090.6270              3107.0538              3174.8202
 Red. masses --      1.0297                 1.0628                 1.1038
 Frc consts  --      5.7951                 6.0452                 6.5554
 IR Inten    --     31.4272                19.2343                18.9867

                    106                    107                    108
                      A                      A                      A
 Frequencies --   3182.4892              3203.8376              3212.4191
 Red. masses --      1.1062                 1.1091                 1.1102
 Frc consts  --      6.6013                 6.7078                 6.7503
 IR Inten    --      0.6980                 1.2715                 4.6766

                    109                    110                    111
                      A                      A                      A
 Frequencies --   3217.3442              3239.8500              3245.2949
 Red. masses --      1.1095                 1.0944                 1.0949
 Frc consts  --      6.7666                 6.7685                 6.7940
 IR Inten    --      4.7529                 1.1139                15.9270

                    112                    113                    114
                      A                      A                      A
 Frequencies --   3247.7102              3259.1311              3261.1452
 Red. masses --      1.0924                 1.0944                 1.0957
 Frc consts  --      6.7885                 6.8488                 6.8658
 IR Inten    --      9.5888                 4.9758                23.8105

                    115                    116                    117
                      A                      A                      A
 Frequencies --   3270.7647              3568.4972              3700.0109
 Red. masses --      1.1025                 1.0624                 1.0584
 Frc consts  --      6.9491                 7.9710                 8.5369
 IR Inten    --     10.4460               778.6799               411.0270

                    118                    119                    120
                      A                      A                      A
 Frequencies --   3773.6924              3797.2724              3919.4548
 Red. masses --      1.0559                 1.0537                 1.0693
 Frc consts  --      8.8594                 8.9520                 9.6780
 IR Inten    --    580.5605                97.5301                69.8198

                    121                    122                    123
                      A                      A                      A
 Frequencies --   3923.2628              3923.5659              3935.7458
 Red. masses --      1.0699                 1.0694                 1.0746
 Frc consts  --      9.7030                 9.6995                 9.8073
 IR Inten    --     52.4800               179.4922               121.2587

 - Thermochemistry -
 -------------------
 Temperature   298.150 Kelvin.  Pressure   1.00000 Atm.
 Atom     1 has atomic number  6 and mass  12.00000

 Molecular mass:   310.13762 amu.
 Principal axes and moments of inertia in atomic units:
                           1         2         3
     Eigenvalues --  5040.695747625.792079511.22231
           X            0.99994  -0.00088   0.01133
           Y            0.00098   0.99996  -0.00929
           Z           -0.01132   0.00930   0.99989
 This molecule is an asymmetric top.
 Rotational symmetry number  1.
 Warning -- assumption of classical behavior for rotation
           may cause significant error
 Rotational temperatures (Kelvin)      0.01718     0.01136     0.00911
 Rotational constants (GHZ):           0.35803     0.23666     0.18975
    1 imaginary frequencies ignored.
 Zero-point vibrational energy     911272.1 (Joules/Mol)
                                  217.79925 (Kcal/Mol)
 Warning -- explicit consideration of  41 degrees of freedom as
           vibrations may cause significant error
 Vibrational temperatures:     34.88    36.59    69.42    82.10    93.25
          (Kelvin)            103.84   112.21   122.99   135.37   157.50
                              160.21   186.23   202.10   218.97   236.07
                              245.80   255.50   271.14   277.42   289.23
                              300.53   302.75   317.53   327.83   342.77
                              360.65   370.93   408.32   414.69   434.57
                              457.65   461.01   481.14   500.90   537.03
                              553.88   648.08   661.64   688.59   737.79
                              771.22   895.60   905.67   930.22   984.72
                             1000.64  1043.80  1080.11  1112.34  1138.66
                             1160.93  1167.35  1194.84  1203.61  1228.25
                             1236.07  1295.28  1353.85  1362.42  1365.58
                             1397.95  1405.91  1454.93  1482.64  1495.03
                             1509.51  1515.59  1541.32  1557.54  1598.38
                             1623.74  1664.18  1701.79  1704.87  1714.16
                             1767.84  1773.84  1778.03  1792.80  1872.46
                             1886.39  1889.96  1924.34  1958.70  2009.93
                             2065.16  2097.07  2108.78  2111.50  2120.92
                             2130.80  2133.66  2156.64  2170.48  2310.62
                             2320.81  2365.38  2375.03  2621.20  2683.64
                             4420.41  4446.72  4470.35  4567.85  4578.89
                             4609.60  4621.95  4629.03  4661.42  4669.25
                             4672.72  4689.16  4692.05  4705.89  5134.27
                             5323.48  5429.49  5463.42  5639.21  5644.69
                             5645.13  5662.65

 Zero-point correction=                           0.347085 (Hartree/Particle)
 Thermal correction to Energy=                    0.374671
 Thermal correction to Enthalpy=                  0.375616
 Thermal correction to Gibbs Free Energy=         0.289296
 Sum of electronic and zero-point Energies=          -1141.875026
 Sum of electronic and thermal Energies=             -1141.847440
 Sum of electronic and thermal Enthalpies=           -1141.846496
 Sum of electronic and thermal Free Energies=        -1141.932815

                     E (Thermal)             CV                S
                      KCal/Mol        Cal/Mol-Kelvin    Cal/Mol-Kelvin
 Total                  235.110             97.878            181.674
 Electronic               0.000              0.000              0.000
 Translational            0.889              2.981             43.092
 Rotational               0.889              2.981             34.257
 Vibrational            233.332             91.917            104.325
 Vibration     1          0.593              1.985              6.252
 Vibration     2          0.593              1.985              6.157
 Vibration     3          0.595              1.978              4.888
 Vibration     4          0.596              1.975              4.556
 Vibration     5          0.597              1.971              4.305
 Vibration     6          0.598              1.967              4.093
 Vibration     7          0.599              1.964              3.941
 Vibration     8          0.601              1.959              3.761
 Vibration     9          0.603              1.953              3.573
 Vibration    10          0.606              1.942              3.278
 Vibration    11          0.607              1.940              3.245
 Vibration    12          0.612              1.924              2.954
 Vibration    13          0.615              1.913              2.797
 Vibration    14          0.619              1.900              2.645
 Vibration    15          0.623              1.887              2.502
 Vibration    16          0.626              1.878              2.426
 Vibration    17          0.628              1.870              2.354
 Vibration    18          0.633              1.856              2.243
 Vibration    19          0.635              1.850              2.201
 Vibration    20          0.638              1.838              2.124
 Vibration    21          0.642              1.827              2.053
 Vibration    22          0.643              1.825              2.040
 Vibration    23          0.647              1.810              1.953
 Vibration    24          0.651              1.799              1.896
 Vibration    25          0.656              1.782              1.816
 Vibration    26          0.663              1.762              1.726
 Vibration    27          0.667              1.750              1.677
 Vibration    28          0.682              1.704              1.511
 Vibration    29          0.685              1.696              1.484
 Vibration    30          0.694              1.670              1.406
 Vibration    31          0.704              1.639              1.320
 Vibration    32          0.706              1.634              1.308
 Vibration    33          0.716              1.607              1.239
 Vibration    34          0.726              1.579              1.175
 Vibration    35          0.745              1.527              1.066
 Vibration    36          0.754              1.502              1.020
 Vibration    37          0.809              1.360              0.794
 Vibration    38          0.818              1.339              0.766
 Vibration    39          0.835              1.298              0.714
 Vibration    40          0.868              1.222              0.627
 Vibration    41          0.891              1.170              0.574

 1\1\GINC-D12S7B4\Freq\RM062X\def2SVP\C11H22N2O8\CHMKSH\08-Sep-2020\0\\
 # freq scrf=(cpcm,solvent=toluene) geom=connectivity def2svp empirical
 dispersion=gd3 m062x\\Title Card Required\\0,1\C,0.770395,-0.976003,1.
 052385\C,2.010321,-1.520605,0.273488\C,0.262476,-2.891498,-0.321453\C,
 -0.274972,-2.048074,0.804095\H,0.831205,-0.386965,1.966095\H,-1.319592
 ,-1.97917,1.098773\C,1.436751,-2.180292,-0.969507\H,2.164898,-2.872675
 ,-1.414581\H,1.110294,-1.445831,-1.717665\C,1.784442,-2.388616,1.40614
 2\H,2.30141,-2.332776,2.36223\C,0.620756,-3.260282,1.085519\H,0.315827

 Normal termination of Gaussian 09 at Tue Sep  8 11:24:39 2020.
