 Gaussian 09, Revision D.01,
 Gaussian 09:  ES64L-G09RevD.01 24-Apr-2013

 ----------------------------------------------------------------------
 # opt freq scrf=(cpcm,solvent=toluene) geom=connectivity def2svp m062x
  empiricaldispersion=gd3
 ----------------------------------------------------------------------

 -------------------
 Title Card Required
 -------------------
 Symbolic Z-matrix:
 Charge =  0 Multiplicity = 1

 SCF Done:  E(RM062X) =  -871.064159017     A.U. after   15 cycles
 SCF Done:  E(RM062X) =  -871.075707505     A.U. after   14 cycles
 SCF Done:  E(RM062X) =  -871.077439900     A.U. after   12 cycles
 SCF Done:  E(RM062X) =  -871.078100603     A.U. after   13 cycles
 SCF Done:  E(RM062X) =  -871.078538244     A.U. after   13 cycles
 SCF Done:  E(RM062X) =  -871.078983453     A.U. after   13 cycles
 SCF Done:  E(RM062X) =  -871.079437517     A.U. after   13 cycles
 SCF Done:  E(RM062X) =  -871.080066066     A.U. after   15 cycles
 SCF Done:  E(RM062X) =  -871.080395659     A.U. after   13 cycles
 SCF Done:  E(RM062X) =  -871.081084067     A.U. after   14 cycles
 SCF Done:  E(RM062X) =  -871.096178765     A.U. after   11 cycles
 SCF Done:  E(RM062X) =  -871.096189946     A.U. after   11 cycles
 SCF Done:  E(RM062X) =  -871.096192659     A.U. after   10 cycles
 SCF Done:  E(RM062X) =  -871.096196412     A.U. after   11 cycles
 SCF Done:  E(RM062X) =  -871.096197875     A.U. after   10 cycles
 SCF Done:  E(RM062X) =  -871.096197636     A.U. after   10 cycles
 SCF Done:  E(RM062X) =  -871.096196953     A.U. after   10 cycles
 SCF Done:  E(RM062X) =  -871.096195967     A.U. after   10 cycles
 SCF Done:  E(RM062X) =  -871.096195484     A.U. after   10 cycles
 Optimization completed.
    -- Stationary point found.

 1\1\GINC-D10S10B4\FOpt\RM062X\def2SVP\C4H14N2O8\CHMKSH\07-Sep-2020\0\\
 # opt freq scrf=(cpcm,solvent=toluene) geom=connectivity def2svp m062x
  empiricaldispersion=gd3\\Title Card Required\\0,1\N,0.3173098607,-0.2
 737933909,0.5068006543\N,-0.2955397704,0.561558412,-0.148129322\C,1.74
 38872863,-0.2608978251,0.268034787\C,-1.7302873964,0.5006967602,0.0791
 556439\O,-2.2110847667,0.5311409255,1.1751468236\O,2.2410242699,-1.141
 5676246,-0.3770451644\O,-2.3307442242,0.498172073,-1.076935001\O,2.315
 0055101,0.7163277184,0.9054058216\C,3.7207775009,0.9070531629,0.669410

 Normal termination of Gaussian 09 at Mon Sep  7 14:03:55 2020.

 -------------------------------------------------------------------
 #N Geom=AllCheck Guess=TCheck SCRF=Check GenChk RM062X/def2SVP Freq
 -------------------------------------------------------------------

 Structure from the checkpoint file:  "m062x_dmad_4H2O_cycloaddition_PM6_toluene.chk"
 -------------------
 Title Card Required
 -------------------
 Charge =  0 Multiplicity = 1

                         Standard orientation:
 ---------------------------------------------------------------------
 Center     Atomic      Atomic             Coordinates (Angstroms)
 Number     Number       Type             X           Y           Z
 ---------------------------------------------------------------------
      1          7           0       -0.332927    0.256784    0.459816
      2          7           0        0.370498   -0.469015   -0.233538
      3          6           0       -1.749937    0.025017    0.284706
      4          6           0        1.787643   -0.188515   -0.069582
      5          8           0        2.317519   -0.151986    1.003352
      6          8           0       -2.406234    0.822722   -0.325042
      7          8           0        2.326443   -0.084907   -1.251132
      8          8           0       -2.133421   -1.033307    0.932995
      9          6           0       -3.502342   -1.437559    0.757207
     10          1           0       -3.701543   -2.167062    1.546157
     11          1           0       -4.167848   -0.569568    0.834493
     12          1           0       -3.580333   -1.895873   -0.236479
     13          6           0        3.680355    0.387988   -1.288393
     14          1           0        3.671953    1.447530   -1.000431
     15          1           0        4.304944   -0.191185   -0.597588
     16          1           0        4.012524    0.266796   -2.322530
     17          8           0       -5.159507    1.467876    0.325123
     18          1           0       -4.303800    1.356304   -0.114167
     19          1           0       -4.922937    1.913422    1.146778
     20          8           0       -1.736778   -1.717797   -1.869153
     21          1           0       -1.865206   -0.927546   -2.407312
     22          1           0       -0.818420   -1.640936   -1.572625
     23          8           0        1.488174    2.478111   -0.074030
     24          1           0        1.125858    2.220173    0.783982
     25          1           0        0.697522    2.633540   -0.605020
     26          8           0        5.094885   -0.897806    1.467003
     27          1           0        4.149575   -0.690445    1.506598
     28          1           0        5.511754   -0.054346    1.677641
 ---------------------------------------------------------------------

 SCF Done:  E(RM062X) =  -871.096195484     A.U. after    1 cycles

 The electronic state is 1-A.
 Alpha  occ. eigenvalues --  -19.71108 -19.70898 -19.66264 -19.66108 -19.63548
 Alpha  occ. eigenvalues --  -19.62473 -19.61375 -19.61178 -14.87381 -14.87276
 Alpha  occ. eigenvalues --  -10.74494 -10.74210 -10.61665 -10.61507  -1.28207
 Alpha  occ. eigenvalues --   -1.26759  -1.19643  -1.17277  -1.16525  -1.11449
 Alpha  occ. eigenvalues --   -1.10439  -1.09399  -1.09189  -0.92000  -0.84874
 Alpha  occ. eigenvalues --   -0.80194  -0.70133  -0.66305  -0.65500  -0.63754
 Alpha  occ. eigenvalues --   -0.61596  -0.60750  -0.60307  -0.59722  -0.59329
 Alpha  occ. eigenvalues --   -0.57683  -0.57285  -0.56339  -0.53420  -0.52595
 Alpha  occ. eigenvalues --   -0.52274  -0.49114  -0.47776  -0.47209  -0.46435
 Alpha  occ. eigenvalues --   -0.45726  -0.45548  -0.45056  -0.45017  -0.42552
 Alpha  occ. eigenvalues --   -0.40753  -0.40489  -0.40394  -0.39754  -0.38753
 Alpha  occ. eigenvalues --   -0.37409  -0.37210  -0.34283
 Alpha virt. eigenvalues --   -0.06579   0.03934   0.05563   0.08642   0.09495
 Alpha virt. eigenvalues --    0.10909   0.11360   0.14254   0.14380   0.15619
 Alpha virt. eigenvalues --    0.15946   0.16951   0.18451   0.18829   0.20025

 Mulliken charges:
               1
     1  N   -0.121470
     2  N   -0.135467
     3  C    0.323020
     4  C    0.349802
     5  O   -0.268115
     6  O   -0.276446
     7  O   -0.308218
     8  O   -0.306744
     9  C    0.109363
    10  H    0.075427
    11  H    0.036356
    12  H    0.081556
    13  C    0.103196
    14  H    0.075876
    15  H    0.044315
    16  H    0.075329
    17  O   -0.341384
    18  H    0.185001
    19  H    0.179521
    20  O   -0.326121
    21  H    0.183687
    22  H    0.184942
    23  O   -0.319144
    24  H    0.191711
    25  H    0.184255
    26  O   -0.343855
    27  H    0.183037
    28  H    0.180571
 Sum of Mulliken charges =   0.00000

 Dipole moment (field-independent basis, Debye):
    X=              0.6976    Y=              2.4365    Z=             -0.1215  Tot=              2.5373
 Quadrupole moment (field-independent basis, Debye-Ang):
   XX=           -101.0195   YY=            -86.4210   ZZ=            -77.7835
   XY=             11.9026   XZ=            -13.9592   YZ=              1.5963

  Exact polarizability: 126.420   0.031  83.673  -5.474  -2.628  88.029
 Approx polarizability: 109.940  -4.713  89.064  -0.218  -2.695  98.013

                      1                      2                      3
                      A                      A                      A
 Frequencies --     13.6528                27.9289                32.6025
 Red. masses --      6.4413                 6.1623                 7.0911
 Frc consts  --      0.0007                 0.0028                 0.0044
 IR Inten    --      3.6118                 0.0894                 2.9548

                      4                      5                      6
                      A                      A                      A
 Frequencies --     51.7454                62.4861                86.7077
 Red. masses --      7.0639                 5.9799                 3.2582
 Frc consts  --      0.0111                 0.0138                 0.0144
 IR Inten    --      2.0260                 0.8010                 8.7528

                      7                      8                      9
                      A                      A                      A
 Frequencies --    101.9099               113.8736               116.6065
 Red. masses --      4.9786                 6.1778                 4.5443
 Frc consts  --      0.0305                 0.0472                 0.0364
 IR Inten    --      3.3610                 1.1669                 6.5676

                     10                     11                     12
                      A                      A                      A
 Frequencies --    129.2776               132.9741               135.3899
 Red. masses --      5.5913                 4.8946                 4.1008
 Frc consts  --      0.0551                 0.0510                 0.0443
 IR Inten    --      9.5014                37.9698                 2.4008

                     13                     14                     15
                      A                      A                      A
 Frequencies --    142.8599               161.3543               166.9569
 Red. masses --      3.1831                 7.5070                 4.0737
 Frc consts  --      0.0383                 0.1152                 0.0669
 IR Inten    --     17.3447                26.7454                23.7921

                     16                     17                     18
                      A                      A                      A
 Frequencies --    170.3518               179.8465               187.8669
 Red. masses --      2.8380                 1.9021                 1.4312
 Frc consts  --      0.0485                 0.0362                 0.0298
 IR Inten    --     15.7833                86.2685                 2.5102

                     19                     20                     21
                      A                      A                      A
 Frequencies --    196.4039               210.4223               217.9756
 Red. masses --      1.4547                 2.1625                 1.2419
 Frc consts  --      0.0331                 0.0564                 0.0348
 IR Inten    --     11.3954                10.1556                56.9454

                     22                     23                     24
                      A                      A                      A
 Frequencies --    236.6328               262.5868               272.7726
 Red. masses --      1.1581                 2.3584                 1.0643
 Frc consts  --      0.0382                 0.0958                 0.0467
 IR Inten    --     95.0306               141.8480               112.6012

                     25                     26                     27
                      A                      A                      A
 Frequencies --    284.0719               294.3228               304.8519
 Red. masses --      1.3608                 1.3010                 4.2132
 Frc consts  --      0.0647                 0.0664                 0.2307
 IR Inten    --     15.8688               111.1796                17.8759

                     28                     29                     30
                      A                      A                      A
 Frequencies --    325.7908               336.1789               343.4628
 Red. masses --      1.2927                 1.8714                 1.2535
 Frc consts  --      0.0808                 0.1246                 0.0871
 IR Inten    --    123.5788                26.2985                54.4996

                     31                     32                     33
                      A                      A                      A
 Frequencies --    349.8364               421.5443               484.9442
 Red. masses --      2.5176                 1.1459                 3.6948
 Frc consts  --      0.1815                 0.1200                 0.5119
 IR Inten    --     79.5878               262.5150                75.8037

                     34                     35                     36
                      A                      A                      A
 Frequencies --    522.5935               534.4603               543.7922
 Red. masses --      1.4242                 1.1015                 1.2854
 Frc consts  --      0.2292                 0.1854                 0.2240
 IR Inten    --    206.8079               437.1191                56.2860

                     37                     38                     39
                      A                      A                      A
 Frequencies --    569.5106               671.9594               720.9928
 Red. masses --      2.1238                 7.5221                 8.4623
 Frc consts  --      0.4058                 2.0011                 2.5918
 IR Inten    --     41.6956                10.2587                 8.5947

                     40                     41                     42
                      A                      A                      A
 Frequencies --    823.6673               865.9251               949.1886
 Red. masses --     10.8258                 6.4026                 5.5503
 Frc consts  --      4.3273                 2.8286                 2.9463
 IR Inten    --     57.3677                 7.5693                94.8732

                     43                     44                     45
                      A                      A                      A
 Frequencies --   1015.2471              1081.1972              1099.7469
 Red. masses --      7.7219                 8.7906                 8.2440
 Frc consts  --      4.6894                 6.0545                 5.8746
 IR Inten    --      9.4622                 0.6493                40.7019

                     46                     47                     48
                      A                      A                      A
 Frequencies --   1184.5727              1194.3720              1230.2431
 Red. masses --      1.2779                 1.2755                 1.4967
 Frc consts  --      1.0565                 1.0720                 1.3346
 IR Inten    --      3.7027                 3.6595                26.6956

                     49                     50                     51
                      A                      A                      A
 Frequencies --   1236.8595              1367.1307              1389.0600
 Red. masses --      1.4988                 3.8862                 3.1566
 Frc consts  --      1.3510                 4.2796                 3.5885
 IR Inten    --     17.0464              1206.5199                62.7647

                     52                     53                     54
                      A                      A                      A
 Frequencies --   1469.7022              1472.1424              1495.8791
 Red. masses --      1.2253                 1.2484                 1.1174
 Frc consts  --      1.5593                 1.5941                 1.4731
 IR Inten    --    164.8307                20.7774                66.0178

                     55                     56                     57
                      A                      A                      A
 Frequencies --   1496.7566              1501.1369              1503.0203
 Red. masses --      1.1553                 1.0480                 1.1489
 Frc consts  --      1.5249                 1.3913                 1.5292
 IR Inten    --     21.5049                19.4423                32.2077

                     58                     59                     60
                      A                      A                      A
 Frequencies --   1623.1085              1632.6545              1635.4210
 Red. masses --      1.0848                 1.0801                 1.0798
 Frc consts  --      1.6838                 1.6964                 1.7017
 IR Inten    --    111.7024                32.5956               144.4856

                     61                     62                     63
                      A                      A                      A
 Frequencies --   1637.9406              1808.0849              1905.8186
 Red. masses --      1.0778                13.9600                11.8723
 Frc consts  --      1.7036                26.8888                25.4066
 IR Inten    --     73.3369                 0.5289               255.2805

                     64                     65                     66
                      A                      A                      A
 Frequencies --   1917.3693              3090.1277              3094.9952
 Red. masses --     11.8485                 1.0298                 1.0295
 Frc consts  --     25.6639                 5.7939                 5.8103
 IR Inten    --    818.0676                20.4425                20.1565

                     67                     68                     69
                      A                      A                      A
 Frequencies --   3204.0185              3210.7803              3228.8492
 Red. masses --      1.1095                 1.1099                 1.1109
 Frc consts  --      6.7107                 6.7414                 6.8238
 IR Inten    --      5.7355                 5.7458                 4.0208

                     70                     71                     72
                      A                      A                      A
 Frequencies --   3237.3003              3818.3978              3820.2272
 Red. masses --      1.1110                 1.0513                 1.0515
 Frc consts  --      6.8600                 9.0308                 9.0415
 IR Inten    --      2.9799               307.7007               115.4096

                     73                     74                     75
                      A                      A                      A
 Frequencies --   3826.8499              3850.7373              3927.0407
 Red. masses --      1.0512                 1.0476                 1.0764
 Frc consts  --      9.0701                 9.1524                 9.7806
 IR Inten    --    205.0333                40.8811               133.5248

                     76                     77                     78
                      A                      A                      A
 Frequencies --   3929.0875              3931.3258              3935.1406
 Red. masses --      1.0756                 1.0760                 1.0798
 Frc consts  --      9.7836                 9.7977                 9.8515
 IR Inten    --    128.1022               131.5944               101.8306

 - Thermochemistry -
 -------------------
 Temperature   298.150 Kelvin.  Pressure   1.00000 Atm.
 Atom     1 has atomic number  7 and mass  14.00307

 Molecular mass:   218.07502 amu.
 Principal axes and moments of inertia in atomic units:
                           1         2         3
     Eigenvalues --  1752.276807309.303127589.55903
           X            0.99996   0.00749  -0.00439
           Y           -0.00747   0.99995   0.00606
           Z            0.00443  -0.00602   0.99997
 This molecule is an asymmetric top.
 Rotational symmetry number  1.
 Warning -- assumption of classical behavior for rotation
           may cause significant error
 Rotational temperatures (Kelvin)      0.04943     0.01185     0.01141
 Rotational constants (GHZ):           1.02994     0.24691     0.23779
 Zero-point vibrational energy     566794.4 (Joules/Mol)
                                  135.46711 (Kcal/Mol)
 Warning -- explicit consideration of  37 degrees of freedom as
           vibrations may cause significant error
 Vibrational temperatures:     19.64    40.18    46.91    74.45    89.90
          (Kelvin)            124.75   146.63   163.84   167.77   186.00
                              191.32   194.80   205.54   232.15   240.21
                              245.10   258.76   270.30   282.58   302.75
                              313.62   340.46   377.80   392.46   408.72
                              423.46   438.61   468.74   483.69   494.17
                              503.34   606.51   697.73   751.89   768.97
                              782.39   819.40   966.80  1037.35  1185.07
                             1245.87  1365.67  1460.71  1555.60  1582.29
                             1704.33  1718.43  1770.04  1779.56  1966.99
                             1998.54  2114.57  2118.08  2152.23  2153.50
                             2159.80  2162.51  2335.29  2349.02  2353.00
                             2356.63  2601.43  2742.04  2758.66  4446.00
                             4453.00  4609.86  4619.59  4645.59  4657.75
                             5493.82  5496.45  5505.98  5540.35  5650.13
                             5653.07  5656.29  5661.78

 Zero-point correction=                           0.215881 (Hartree/Particle)
 Thermal correction to Energy=                    0.239396
 Thermal correction to Enthalpy=                  0.240340
 Thermal correction to Gibbs Free Energy=         0.161447
 Sum of electronic and zero-point Energies=           -870.880315
 Sum of electronic and thermal Energies=              -870.856799
 Sum of electronic and thermal Enthalpies=            -870.855855
 Sum of electronic and thermal Free Energies=         -870.934749

                     E (Thermal)             CV                S
                      KCal/Mol        Cal/Mol-Kelvin    Cal/Mol-Kelvin
 Total                  150.223             76.140            166.046
 Electronic               0.000              0.000              0.000
 Translational            0.889              2.981             42.042
 Rotational               0.889              2.981             32.941
 Vibrational            148.446             70.178             91.063
 Vibration     1          0.593              1.986              7.392
 Vibration     2          0.593              1.984              5.971
 Vibration     3          0.594              1.983              5.664
 Vibration     4          0.596              1.977              4.750
 Vibration     5          0.597              1.972              4.377
 Vibration     6          0.601              1.958              3.733
 Vibration     7          0.604              1.948              3.417
 Vibration     8          0.607              1.938              3.202
 Vibration     9          0.608              1.936              3.156
 Vibration    10          0.612              1.924              2.957
 Vibration    11          0.613              1.920              2.903
 Vibration    12          0.613              1.918              2.868
 Vibration    13          0.616              1.910              2.765
 Vibration    14          0.622              1.890              2.534
 Vibration    15          0.624              1.883              2.469
 Vibration    16          0.625              1.879              2.432
 Vibration    17          0.629              1.867              2.330
 Vibration    18          0.633              1.857              2.249
 Vibration    19          0.636              1.845              2.167
 Vibration    20          0.643              1.825              2.040
 Vibration    21          0.646              1.814              1.976
 Vibration    22          0.656              1.785              1.828
 Vibration    23          0.670              1.741              1.645
 Vibration    24          0.676              1.724              1.579
 Vibration    25          0.682              1.703              1.509
 Vibration    26          0.689              1.684              1.449
 Vibration    27          0.696              1.665              1.390
 Vibration    28          0.710              1.624              1.281
 Vibration    29          0.717              1.603              1.230
 Vibration    30          0.722              1.589              1.196
 Vibration    31          0.727              1.576              1.167
 Vibration    32          0.784              1.423              0.887
 Vibration    33          0.841              1.283              0.697
 Vibration    34          0.878              1.200              0.604
 Vibration    35          0.889              1.174              0.577
 Vibration    36          0.899              1.153              0.557
 Vibration    37          0.926              1.097              0.505

 1\1\GINC-D10S10B4\Freq\RM062X\def2SVP\C4H14N2O8\CHMKSH\07-Sep-2020\0\\
 #N Geom=AllCheck Guess=TCheck SCRF=Check GenChk RM062X/def2SVP Freq\\T
 itle Card Required\\0,1\N,0.3173098607,-0.2737933909,0.5068006543\N,-0
 .2955397704,0.561558412,-0.148129322\C,1.7438872863,-0.2608978251,0.26
 8034787\C,-1.7302873964,0.5006967602,0.0791556439\O,-2.2110847667,0.53
 11409255,1.1751468236\O,2.2410242699,-1.1415676246,-0.3770451644\O,-2.
 3307442242,0.498172073,-1.076935001\O,2.3150055101,0.7163277184,0.9054
 058216\C,3.7207775009,0.9070531629,0.6694102063\H,4.0654101433,1.58585

 Normal termination of Gaussian 09 at Mon Sep  7 14:12:56 2020.
