 Gaussian 09, Revision D.01,
 Gaussian 09:  ES64L-G09RevD.01 24-Apr-2013

 ----------------------------------------------------------------------
 # freq scrf=(cpcm,solvent=water) geom=connectivity def2svp empiricaldi
 spersion=gd3 m062x
 ----------------------------------------------------------------------

 -------------------
 Title Card Required
 -------------------
 Symbolic Z-matrix:
 Charge =  0 Multiplicity = 1

                         Standard orientation:
 ---------------------------------------------------------------------
 Center     Atomic      Atomic             Coordinates (Angstroms)
 Number     Number       Type             X           Y           Z
 ---------------------------------------------------------------------
      1          6           0        2.471892    2.794326   -0.554322
      2          6           0        2.952158    1.527925   -0.296040
      3          6           0        2.074716    0.486170    0.092476
      4          6           0        0.682107    0.760656    0.198319
      5          6           0        0.222310    2.073911   -0.050862
      6          6           0        1.096822    3.074031   -0.422883
      7          1           0        3.161898    3.584888   -0.852569
      8          1           0        4.017284    1.315835   -0.383177
      9          1           0       -0.838336    2.294581    0.066640
     10          1           0        0.724303    4.081648   -0.611674
     11          6           0       -0.253510   -0.292011    0.600310
     12          6           0        2.537239   -0.841907    0.404339
     13          6           0        0.275609   -1.582337    0.831648
     14          1           0       -0.386821   -2.338756    1.249502
     15          6           0        1.678304   -1.826848    0.791397
     16          1           0        2.063178   -2.816043    1.040998
     17          8           0       -1.516778   -0.085977    0.630658
     18         17           0        4.244538   -1.193234    0.313070
     19          6           0       -2.435829   -0.835122   -1.206430
     20          6           0       -1.787448   -2.080498   -1.141691
     21          1           0       -2.341901   -2.907239   -0.689545
     22          6           0       -3.866305   -0.744516   -0.786741
     23          1           0       -4.047755    0.223252   -0.302088
     24          1           0       -4.501866   -0.792208   -1.686884
     25          1           0       -4.147293   -1.558006   -0.107244
     26          6           0       -1.936049    0.299693   -2.042448
     27          1           0       -0.843149    0.331029   -2.126365
     28          1           0       -2.352357    0.184266   -3.057085
     29          1           0       -2.299411    1.252351   -1.634927
     30          6           0       -0.434394   -2.232036   -1.328388
     31          1           0        0.031117   -3.211726   -1.211390
     32          1           0        0.175112   -1.468153   -1.815268
     33          8           0       -3.185100    2.151525    0.694413
     34          1           0       -2.497161    1.465250    0.620628
     35          1           0       -3.743193    1.740192    1.373177
     36          8           0       -3.749877   -0.103998    2.324952
     37          1           0       -3.452013    0.039946    3.231355
     38          1           0       -2.930473   -0.317155    1.841435
 ---------------------------------------------------------------------

 SCF Done:  E(RM062X) =  -1267.76986000     A.U. after   15 cycles

 The electronic state is 1-A.
 Alpha  occ. eigenvalues -- -102.64504 -19.63256 -19.61711 -19.60163 -10.62536
 Alpha  occ. eigenvalues --  -10.62359 -10.61827 -10.59863 -10.58477 -10.57499
 Alpha  occ. eigenvalues --  -10.57481 -10.57319 -10.56761 -10.56721 -10.56689
 Alpha  occ. eigenvalues --  -10.56510 -10.56168 -10.55940 -10.55340  -9.81497
 Alpha  occ. eigenvalues --   -7.54196  -7.53527  -7.53521  -1.13452  -1.09698
 Alpha  occ. eigenvalues --   -1.07925  -0.99852  -0.95393  -0.93544  -0.91124
 Alpha  occ. eigenvalues --   -0.85218  -0.84960  -0.83796  -0.78960  -0.78803
 Alpha  occ. eigenvalues --   -0.71532  -0.71041  -0.70739  -0.65859  -0.61216
 Alpha  occ. eigenvalues --   -0.60949  -0.59555  -0.58778  -0.57426  -0.56152
 Alpha  occ. eigenvalues --   -0.55805  -0.54081  -0.53523  -0.53338  -0.51570
 Alpha  occ. eigenvalues --   -0.50166  -0.50112  -0.48865  -0.48173  -0.47266
 Alpha  occ. eigenvalues --   -0.46705  -0.46060  -0.45785  -0.45360  -0.44678
 Alpha  occ. eigenvalues --   -0.44339  -0.43441  -0.42833  -0.42511  -0.42026
 Alpha  occ. eigenvalues --   -0.40858  -0.37970  -0.37948  -0.37286  -0.36699
 Alpha  occ. eigenvalues --   -0.35478  -0.34184  -0.32745  -0.30152  -0.25539
 Alpha virt. eigenvalues --   -0.05549  -0.01646   0.00787   0.05519   0.07777
 Alpha virt. eigenvalues --    0.08896   0.09251   0.11151   0.11640   0.11870
 Alpha virt. eigenvalues --    0.12753   0.13876   0.14301   0.15923   0.16219

 Mulliken charges:
               1
     1  C   -0.012178
     2  C   -0.069094
     3  C    0.062473
     4  C   -0.022666
     5  C   -0.067757
     6  C   -0.019826
     7  H    0.042187
     8  H    0.025282
     9  H   -0.000797
    10  H    0.038294
    11  C    0.214309
    12  C    0.018628
    13  C   -0.150410
    14  H    0.043153
    15  C    0.021182
    16  H    0.035485
    17  O   -0.422451
    18  Cl  -0.110930
    19  C   -0.157463
    20  C   -0.051931
    21  H    0.050284
    22  C    0.003415
    23  H    0.022471
    24  H    0.082662
    25  H    0.060264
    26  C    0.003113
    27  H    0.066469
    28  H    0.086422
    29  H    0.047259
    30  C    0.005716
    31  H    0.088328
    32  H    0.083981
    33  O   -0.368771
    34  H    0.166240
    35  H    0.177740
    36  O   -0.372184
    37  H    0.194449
    38  H    0.186654
 Sum of Mulliken charges =   0.00000

 Dipole moment (field-independent basis, Debye):
    X=              0.7817    Y=             -4.0937    Z=             -1.9709  Tot=              4.6102
 Quadrupole moment (field-independent basis, Debye-Ang):
   XX=           -133.6825   YY=           -113.3559   ZZ=           -112.9451
   XY=             12.6120   XZ=              1.8399   YZ=             -2.1067

  Exact polarizability: 375.326  19.540 303.055  27.517 -15.837 184.238
 Approx polarizability: 335.087   4.804 285.194  15.518 -15.667 184.303

 ******    1 imaginary frequencies (negative Signs) ******

                      1                      2                      3
                      A                      A                      A
 Frequencies --   -324.7796                38.2341                47.3348
 Red. masses --      7.8304                 6.1608                 6.0455
 Frc consts  --      0.4866                 0.0053                 0.0080
 IR Inten    --     91.1234                 3.8043                 2.9284

                      4                      5                      6
                      A                      A                      A
 Frequencies --     67.8237                72.8053                79.3040
 Red. masses --      4.1149                 5.1114                 5.0103
 Frc consts  --      0.0112                 0.0160                 0.0186
 IR Inten    --      7.1121                 8.1243                 1.2053

                      7                      8                      9
                      A                      A                      A
 Frequencies --    115.7437               127.4626               134.8483
 Red. masses --      5.1799                 6.5899                 4.8283
 Frc consts  --      0.0409                 0.0631                 0.0517
 IR Inten    --      3.6185                12.7659                 4.4280

                     10                     11                     12
                      A                      A                      A
 Frequencies --    154.7651               161.3904               184.4509
 Red. masses --      2.8552                 3.1859                 2.2468
 Frc consts  --      0.0403                 0.0489                 0.0450
 IR Inten    --     16.8287                 6.4734                23.4053

                     13                     14                     15
                      A                      A                      A
 Frequencies --    203.8390               205.2506               224.5817
 Red. masses --      4.2971                 2.4573                 4.7943
 Frc consts  --      0.1052                 0.0610                 0.1425
 IR Inten    --     41.6473                74.5429                 7.3128

                     16                     17                     18
                      A                      A                      A
 Frequencies --    227.6669               240.7752               254.1185
 Red. masses --      1.7885                 1.7637                 1.2423
 Frc consts  --      0.0546                 0.0602                 0.0473
 IR Inten    --     26.1241                56.6407                17.2550

                     19                     20                     21
                      A                      A                      A
 Frequencies --    264.0990               302.9860               324.6867
 Red. masses --      3.7632                 2.3730                 3.1657
 Frc consts  --      0.1546                 0.1283                 0.1966
 IR Inten    --     13.5480                19.2184                29.2325

                     22                     23                     24
                      A                      A                      A
 Frequencies --    354.2650               361.8740               394.1755
 Red. masses --      6.6020                 3.8716                 6.9970
 Frc consts  --      0.4882                 0.2987                 0.6405
 IR Inten    --     23.4406                 1.7342                 1.5066

                     25                     26                     27
                      A                      A                      A
 Frequencies --    395.0641               407.4845               421.7461
 Red. masses --      1.0886                 1.4039                 1.6339
 Frc consts  --      0.1001                 0.1373                 0.1712
 IR Inten    --     42.5700                93.3807                65.9055

                     28                     29                     30
                      A                      A                      A
 Frequencies --    433.4789               464.1288               488.5139
 Red. masses --      2.6220                 2.2718                 3.8511
 Frc consts  --      0.2903                 0.2883                 0.5415
 IR Inten    --     20.9888                 6.9650                 3.0898

                     31                     32                     33
                      A                      A                      A
 Frequencies --    492.2218               504.9991               527.3125
 Red. masses --      5.7599                 1.1373                 2.5745
 Frc consts  --      0.8222                 0.1709                 0.4218
 IR Inten    --      2.0253               109.4128                 3.3332

                     34                     35                     36
                      A                      A                      A
 Frequencies --    533.7246               589.4558               615.9483
 Red. masses --      5.8412                 3.6105                 3.1271
 Frc consts  --      0.9804                 0.7391                 0.6990
 IR Inten    --     11.6212                12.0090                 1.0296

                     37                     38                     39
                      A                      A                      A
 Frequencies --    623.0528               664.5694               708.3457
 Red. masses --      1.1253                 6.7678                 2.8604
 Frc consts  --      0.2574                 1.7611                 0.8456
 IR Inten    --    269.8063                47.8949                 8.2696

                     40                     41                     42
                      A                      A                      A
 Frequencies --    726.8239               742.3942               755.1022
 Red. masses --      1.1407                 1.3979                 5.7025
 Frc consts  --      0.3550                 0.4539                 1.9157
 IR Inten    --    208.2932                48.7820                40.5031

                     43                     44                     45
                      A                      A                      A
 Frequencies --    793.2501               799.1425               803.2864
 Red. masses --      3.3304                 1.8339                 2.5385
 Frc consts  --      1.2347                 0.6900                 0.9651
 IR Inten    --     20.3359                44.5397                48.7401

                     46                     47                     48
                      A                      A                      A
 Frequencies --    827.0974               883.0097               910.8284
 Red. masses --      3.0702                 1.3241                 1.3133
 Frc consts  --      1.2374                 0.6083                 0.6419
 IR Inten    --      3.3827               109.3574                 2.4900

                     49                     50                     51
                      A                      A                      A
 Frequencies --    917.3483               943.3793               962.4675
 Red. masses --      1.5650                 1.2425                 5.0660
 Frc consts  --      0.7759                 0.6515                 2.7649
 IR Inten    --      2.1758                94.7909                44.7417

                     52                     53                     54
                      A                      A                      A
 Frequencies --    982.7547               984.3375              1014.3994
 Red. masses --      1.3437                 1.2531                 1.2303
 Frc consts  --      0.7646                 0.7154                 0.7459
 IR Inten    --      6.4147                 3.3522                11.7861

                     55                     56                     57
                      A                      A                      A
 Frequencies --   1019.1100              1039.8502              1049.3163
 Red. masses --      1.3603                 1.3370                 1.3712
 Frc consts  --      0.8324                 0.8518                 0.8895
 IR Inten    --      7.2267                12.1014                 8.9534

                     58                     59                     60
                      A                      A                      A
 Frequencies --   1059.2727              1067.2701              1075.7074
 Red. masses --      1.7324                 2.1589                 1.5017
 Frc consts  --      1.1453                 1.4489                 1.0238
 IR Inten    --    194.8364                14.0491                20.0516

                     61                     62                     63
                      A                      A                      A
 Frequencies --   1087.0815              1137.6598              1161.1010
 Red. masses --      1.7323                 1.8972                 1.1364
 Frc consts  --      1.2061                 1.4467                 0.9026
 IR Inten    --     12.7899                 6.9038                11.1118

                     64                     65                     66
                      A                      A                      A
 Frequencies --   1170.1558              1210.4760              1259.6929
 Red. masses --      1.4332                 1.9197                 1.7006
 Frc consts  --      1.1562                 1.6572                 1.5899
 IR Inten    --      4.6365                52.7345                30.4789

                     67                     68                     69
                      A                      A                      A
 Frequencies --   1264.8423              1289.2321              1334.1051
 Red. masses --      1.6408                 1.6211                 2.4025
 Frc consts  --      1.5466                 1.5875                 2.5194
 IR Inten    --     20.8137                26.6198                16.7320

                     70                     71                     72
                      A                      A                      A
 Frequencies --   1344.4816              1351.3316              1390.6327
 Red. masses --      1.4071                 3.1071                 1.2899
 Frc consts  --      1.4985                 3.3429                 1.4697
 IR Inten    --     18.0177                17.8345                15.6161

                     73                     74                     75
                      A                      A                      A
 Frequencies --   1404.1850              1419.3498              1427.3621
 Red. masses --      1.4278                 4.2673                 1.7182
 Frc consts  --      1.6586                 5.0650                 2.0625
 IR Inten    --     41.8176                21.6905                40.1783

                     76                     77                     78
                      A                      A                      A
 Frequencies --   1432.1766              1438.9205              1447.6607
 Red. masses --      1.2026                 1.7551                 1.1520
 Frc consts  --      1.4533                 2.1411                 1.4224
 IR Inten    --     14.8286                84.0458                18.1586

                     79                     80                     81
                      A                      A                      A
 Frequencies --   1465.9030              1486.4802              1500.8780
 Red. masses --      1.2238                 2.6888                 2.8625
 Frc consts  --      1.5494                 3.5005                 3.7992
 IR Inten    --     78.3062                20.6864                75.0702

                     82                     83                     84
                      A                      A                      A
 Frequencies --   1519.5005              1560.8214              1606.2835
 Red. masses --      2.3359                 3.9675                 5.0335
 Frc consts  --      3.1776                 5.6948                 7.6518
 IR Inten    --    127.4129                56.6385               215.7812

                     85                     86                     87
                      A                      A                      A
 Frequencies --   1644.2744              1659.3410              1673.0058
 Red. masses --      1.1149                 5.0858                 7.5372
 Frc consts  --      1.7760                 8.2505                12.4296
 IR Inten    --     36.1002               467.4509                50.1943

                     88                     89                     90
                      A                      A                      A
 Frequencies --   1706.3461              1722.3412              3054.3435
 Red. masses --      5.2834                 1.1327                 1.0409
 Frc consts  --      9.0636                 1.9796                 5.7214
 IR Inten    --      2.3322               138.9777                 7.0812

                     91                     92                     93
                      A                      A                      A
 Frequencies --   3058.6170              3145.1441              3149.5243
 Red. masses --      1.0411                 1.0968                 1.0961
 Frc consts  --      5.7383                 6.3921                 6.4063
 IR Inten    --     10.5779                 5.4839                 6.3637

                     94                     95                     96
                      A                      A                      A
 Frequencies --   3177.8430              3187.1971              3189.4447
 Red. masses --      1.0667                 1.0962                 1.0978
 Frc consts  --      6.3470                 6.5610                 6.5796
 IR Inten    --      9.0349                10.1502                 6.9984

                     97                     98                     99
                      A                      A                      A
 Frequencies --   3191.6601              3209.4704              3221.7983
 Red. masses --      1.1049                 1.0888                 1.0936
 Frc consts  --      6.6316                 6.6081                 6.6883
 IR Inten    --      4.6994                 6.4087                 7.3992

                    100                    101                    102
                      A                      A                      A
 Frequencies --   3221.8800              3238.9755              3242.7652
 Red. masses --      1.0944                 1.0953                 1.0943
 Frc consts  --      6.6931                 6.7704                 6.7799
 IR Inten    --      7.0192                 1.8259                 2.2404

                    103                    104                    105
                      A                      A                      A
 Frequencies --   3245.7179              3284.4820              3684.1431
 Red. masses --      1.0943                 1.1183                 1.0622
 Frc consts  --      6.7922                 7.1078                 8.4947
 IR Inten    --      6.9403                 0.7356               113.0183

                    106                    107                    108
                      A                      A                      A
 Frequencies --   3707.5742              3812.8177              3907.9843
 Red. masses --      1.0582                 1.0650                 1.0699
 Frc consts  --      8.5705                 9.1222                 9.6270
 IR Inten    --   1296.5934               353.1266               142.1227

 - Thermochemistry -
 -------------------
 Temperature   298.150 Kelvin.  Pressure   1.00000 Atm.
 Atom     1 has atomic number  6 and mass  12.00000

 Molecular mass:   282.10227 amu.
 Principal axes and moments of inertia in atomic units:
                           1         2         3
     Eigenvalues --  3569.523187804.211389300.50392
           X            0.99986   0.01675  -0.00245
           Y           -0.01676   0.99985  -0.00462
           Z            0.00237   0.00466   0.99999
 This molecule is an asymmetric top.
 Rotational symmetry number  1.
 Warning -- assumption of classical behavior for rotation
           may cause significant error
 Rotational temperatures (Kelvin)      0.02426     0.01110     0.00931
 Rotational constants (GHZ):           0.50560     0.23125     0.19405
    1 imaginary frequencies ignored.
 Zero-point vibrational energy     812358.2 (Joules/Mol)
                                  194.15826 (Kcal/Mol)
 Warning -- explicit consideration of  35 degrees of freedom as
           vibrations may cause significant error
 Vibrational temperatures:     55.01    68.10    97.58   104.75   114.10
          (Kelvin)            166.53   183.39   194.02   222.67   232.20
                              265.38   293.28   295.31   323.12   327.56
                              346.42   365.62   379.98   435.93   467.15
                              509.71   520.66   567.13   568.41   586.28
                              606.80   623.68   667.78   702.86   708.20
                              726.58   758.68   767.91   848.09   886.21
                              896.43   956.17  1019.15  1045.74  1068.14
                             1086.42  1141.31  1149.79  1155.75  1190.01
                             1270.45  1310.48  1319.86  1357.31  1384.77
                             1413.96  1416.24  1459.49  1466.27  1496.11
                             1509.73  1524.06  1535.56  1547.70  1564.07
                             1636.84  1670.56  1683.59  1741.60  1812.41
                             1819.82  1854.92  1919.48  1934.41  1944.26
                             2000.81  2020.31  2042.13  2053.65  2060.58
                             2070.28  2082.86  2109.10  2138.71  2159.43
                             2186.22  2245.67  2311.08  2365.74  2387.42
                             2407.08  2455.05  2478.06  4394.51  4400.66
                             4525.16  4531.46  4572.20  4585.66  4588.89
                             4592.08  4617.71  4635.44  4635.56  4660.16
                             4665.61  4669.86  4725.63  5300.65  5334.37
                             5485.79  5622.71

 Zero-point correction=                           0.309411 (Hartree/Particle)
 Thermal correction to Energy=                    0.330252
 Thermal correction to Enthalpy=                  0.331197
 Thermal correction to Gibbs Free Energy=         0.260941
 Sum of electronic and zero-point Energies=          -1267.460449
 Sum of electronic and thermal Energies=             -1267.439608
 Sum of electronic and thermal Enthalpies=           -1267.438663
 Sum of electronic and thermal Free Energies=        -1267.508919

                     E (Thermal)             CV                S
                      KCal/Mol        Cal/Mol-Kelvin    Cal/Mol-Kelvin
 Total                  207.236             79.309            147.865
 Electronic               0.000              0.000              0.000
 Translational            0.889              2.981             42.809
 Rotational               0.889              2.981             33.915
 Vibrational            205.459             73.348             71.140
 Vibration     1          0.594              1.982              5.349
 Vibration     2          0.595              1.979              4.926
 Vibration     3          0.598              1.970              4.216
 Vibration     4          0.599              1.967              4.076
 Vibration     5          0.600              1.963              3.908
 Vibration     6          0.608              1.936              3.170
 Vibration     7          0.611              1.926              2.984
 Vibration     8          0.613              1.919              2.876
 Vibration     9          0.620              1.897              2.613
 Vibration    10          0.622              1.890              2.533
 Vibration    11          0.631              1.861              2.283
 Vibration    12          0.640              1.834              2.098
 Vibration    13          0.640              1.832              2.086
 Vibration    14          0.649              1.804              1.922
 Vibration    15          0.651              1.799              1.897
 Vibration    16          0.658              1.778              1.797
 Vibration    17          0.665              1.756              1.702
 Vibration    18          0.671              1.739              1.635
 Vibration    19          0.694              1.668              1.400
 Vibration    20          0.709              1.626              1.286
 Vibration    21          0.730              1.567              1.147
 Vibration    22          0.736              1.551              1.114
 Vibration    23          0.761              1.483              0.984
 Vibration    24          0.762              1.481              0.981
 Vibration    25          0.772              1.454              0.936
 Vibration    26          0.784              1.423              0.886
 Vibration    27          0.794              1.397              0.847
 Vibration    28          0.822              1.330              0.754
 Vibration    29          0.844              1.276              0.687
 Vibration    30          0.848              1.267              0.678
 Vibration    31          0.860              1.239              0.646
 Vibration    32          0.882              1.190              0.593
 Vibration    33          0.889              1.175              0.579
 Vibration    34          0.947              1.054              0.468
 Vibration    35          0.976              0.998              0.423

 Normal termination of Gaussian 09 at Wed Sep 16 19:14:32 2020.
