 Gaussian 09, Revision D.01,
 Gaussian 09:  ES64L-G09RevD.01 24-Apr-2013

 ----------------------------------------------------------------------
 # opt freq scrf=(cpcm,solvent=water) geom=connectivity def2svp m062x e
 mpiricaldispersion=gd3
 ----------------------------------------------------------------------

 -------------------
 Title Card Required
 -------------------
 Symbolic Z-matrix:
 Charge =  0 Multiplicity = 1

 SCF Done:  E(RM062X) =  -1267.80733831     A.U. after   14 cycles
 SCF Done:  E(RM062X) =  -1267.80733750     A.U. after    7 cycles
 SCF Done:  E(RM062X) =  -1267.80733752     A.U. after    7 cycles
 SCF Done:  E(RM062X) =  -1267.80733694     A.U. after    7 cycles
 SCF Done:  E(RM062X) =  -1267.80733671     A.U. after    6 cycles
 Optimization completed.
    -- Stationary point found.
 Normal termination of Gaussian 09 at Wed Sep  9 12:15:16 2020.

 -------------------------------------------------------------------
 #N Geom=AllCheck Guess=TCheck SCRF=Check GenChk RM062X/def2SVP Freq
 -------------------------------------------------------------------

 Structure from the checkpoint file:  "m062x_sm_2H2O_claisen_PM6_toluene_water_gd3.chk"
 -------------------
 Title Card Required
 -------------------
 Charge =  0 Multiplicity = 1

                         Standard orientation:
 ---------------------------------------------------------------------
 Center     Atomic      Atomic             Coordinates (Angstroms)
 Number     Number       Type             X           Y           Z
 ---------------------------------------------------------------------
      1          6           0       -2.738435    2.479559    0.625730
      2          6           0       -3.009102    1.221311    0.142502
      3          6           0       -1.957733    0.306148   -0.130013
      4          6           0       -0.609612    0.719011    0.088606
      5          6           0       -0.363000    2.022600    0.599839
      6          6           0       -1.403912    2.883134    0.861002
      7          1           0       -3.557929    3.168372    0.834343
      8          1           0       -4.037309    0.905064   -0.030330
      9          1           0        0.664364    2.331383    0.787377
     10          1           0       -1.200001    3.879469    1.254960
     11          6           0        0.468981   -0.200761   -0.157423
     12          6           0       -2.185335   -1.023690   -0.597866
     13          6           0        0.195979   -1.479994   -0.590300
     14          1           0        0.990906   -2.204882   -0.739386
     15          6           0       -1.142268   -1.885513   -0.814028
     16          1           0       -1.342358   -2.900402   -1.157191
     17          8           0        1.694188    0.307428    0.109735
     18         17           0       -3.814204   -1.570998   -0.889945
     19          6           0        2.946755   -0.342256   -0.203967
     20          6           0        3.154390   -1.592062    0.620533
     21          1           0        4.005919   -2.201333    0.298825
     22          6           0        3.065273   -0.594171   -1.709149
     23          1           0        4.087132   -0.927739   -1.935085
     24          1           0        2.369012   -1.355414   -2.079055
     25          1           0        2.879600    0.350456   -2.239270
     26          6           0        3.992878    0.692009    0.218610
     27          1           0        3.851281    0.947250    1.277209
     28          1           0        5.001537    0.279445    0.085265
     29          1           0        3.893396    1.598223   -0.395644
     30          6           0        2.453172   -1.938589    1.698050
     31          1           0        2.712375   -2.838126    2.260254
     32          1           0        1.590403   -1.361446    2.044312
     33          8           0       -0.702329   -0.925728    2.752060
     34          1           0       -0.829063   -1.400458    1.919942
     35          1           0       -0.759626    0.000050    2.484812
     36          8           0        2.029560    2.654699   -1.629751
     37          1           0        1.321382    2.618936   -2.284224
     38          1           0        1.820902    1.926508   -1.027150
 ---------------------------------------------------------------------

 SCF Done:  E(RM062X) =  -1267.80733671     A.U. after    1 cycles

 The electronic state is 1-A.
 Alpha  occ. eigenvalues -- -102.64758 -19.68400 -19.62580 -19.61978 -10.64131
 Alpha  occ. eigenvalues --  -10.63286 -10.62207 -10.59049 -10.58647 -10.58128
 Alpha  occ. eigenvalues --  -10.57347 -10.57241 -10.57207 -10.57126 -10.57070
 Alpha  occ. eigenvalues --  -10.56285 -10.55270 -10.55197 -10.55096  -9.81753
 Alpha  occ. eigenvalues --   -7.54455  -7.53778  -7.53775  -1.19763  -1.10425
 Alpha  occ. eigenvalues --   -1.09825  -1.00762  -0.96243  -0.93429  -0.91177
 Alpha  occ. eigenvalues --   -0.85931  -0.84864  -0.83927  -0.80910  -0.77896
 Alpha  occ. eigenvalues --   -0.73074  -0.71828  -0.70179  -0.68103  -0.64175
 Alpha  occ. eigenvalues --   -0.61366  -0.59683  -0.59338  -0.59267  -0.57499
 Alpha  occ. eigenvalues --   -0.56503  -0.55167  -0.54643  -0.52061  -0.51405
 Alpha  occ. eigenvalues --   -0.51036  -0.50533  -0.49704  -0.49100  -0.47696
 Alpha  occ. eigenvalues --   -0.46922  -0.46166  -0.46052  -0.45654  -0.45406
 Alpha  occ. eigenvalues --   -0.44604  -0.43785  -0.43204  -0.41934  -0.41554
 Alpha  occ. eigenvalues --   -0.41167  -0.39574  -0.38485  -0.38195  -0.38011
 Alpha  occ. eigenvalues --   -0.37362  -0.33644  -0.32673  -0.31653  -0.26821
 Alpha virt. eigenvalues --   -0.02880  -0.00541   0.03990   0.05006   0.08289
 Alpha virt. eigenvalues --    0.08740   0.10052   0.11276   0.11474   0.12028
 Alpha virt. eigenvalues --    0.12527   0.13928   0.15011   0.15814   0.16462

 Mulliken charges:
               1
     1  C   -0.012650
     2  C   -0.049474
     3  C    0.017030
     4  C   -0.075878
     5  C   -0.062298
     6  C   -0.003078
     7  H    0.046307
     8  H    0.029531
     9  H    0.037943
    10  H    0.045512
    11  C    0.241176
    12  C    0.036222
    13  C   -0.130110
    14  H    0.042307
    15  C   -0.022086
    16  H    0.038737
    17  O   -0.386281
    18  Cl  -0.102887
    19  C   -0.099642
    20  C   -0.072149
    21  H    0.052088
    22  C    0.000270
    23  H    0.064419
    24  H    0.058570
    25  H    0.030034
    26  C    0.019702
    27  H    0.051054
    28  H    0.056353
    29  H    0.048686
    30  C   -0.080975
    31  H    0.065365
    32  H    0.034764
    33  O   -0.335391
    34  H    0.191613
    35  H    0.199973
    36  O   -0.354600
    37  H    0.193166
    38  H    0.186679
 Sum of Mulliken charges =   0.00000

 Dipole moment (field-independent basis, Debye):
    X=              1.0400    Y=             -0.5987    Z=             -2.3712  Tot=              2.6575
 Quadrupole moment (field-independent basis, Debye-Ang):
   XX=           -115.8338   YY=           -115.9665   ZZ=           -129.9644
   XY=            -16.0770   XZ=             -0.6254   YZ=              9.2215

  Exact polarizability: 297.331 -11.298 276.286  -4.262  33.875 173.462
 Approx polarizability: 271.440  -6.612 264.065  -3.931  33.530 171.527

                      1                      2                      3
                      A                      A                      A
 Frequencies --     35.8533                41.2245                43.4345
 Red. masses --      7.0333                 5.6271                 5.5307
 Frc consts  --      0.0053                 0.0056                 0.0061
 IR Inten    --      1.7570                 0.3288                 2.1189

                      4                      5                      6
                      A                      A                      A
 Frequencies --     74.0703                78.6059               100.3220
 Red. masses --      4.3846                 5.8948                 4.8053
 Frc consts  --      0.0142                 0.0215                 0.0285
 IR Inten    --      0.9600                 4.4743                 3.1474

                      7                      8                      9
                      A                      A                      A
 Frequencies --    119.5108               128.7037               130.7518
 Red. masses --      3.9954                 5.1547                 3.9678
 Frc consts  --      0.0336                 0.0503                 0.0400
 IR Inten    --      3.7611                 6.1962                 0.4631

                     10                     11                     12
                      A                      A                      A
 Frequencies --    145.2330               147.9079               164.9953
 Red. masses --      3.0125                 3.7408                 4.3322
 Frc consts  --      0.0374                 0.0482                 0.0695
 IR Inten    --      3.6321                 4.6845                19.4188

                     13                     14                     15
                      A                      A                      A
 Frequencies --    197.3669               206.4277               215.8602
 Red. masses --      2.6344                 2.7416                 1.4540
 Frc consts  --      0.0605                 0.0688                 0.0399
 IR Inten    --     61.5309                20.3588                95.9259

                     16                     17                     18
                      A                      A                      A
 Frequencies --    222.6954               233.7842               250.3309
 Red. masses --      1.6097                 2.6686                 1.1726
 Frc consts  --      0.0470                 0.0859                 0.0433
 IR Inten    --      2.8274                 0.5483               151.2332

                     19                     20                     21
                      A                      A                      A
 Frequencies --    277.4617               280.2676               291.9853
 Red. masses --      1.8181                 1.1556                 1.3111
 Frc consts  --      0.0825                 0.0535                 0.0659
 IR Inten    --     23.4061               125.6243                 9.1457

                     22                     23                     24
                      A                      A                      A
 Frequencies --    298.0544               331.9345               344.5923
 Red. masses --      1.0849                 2.1022                 2.6459
 Frc consts  --      0.0568                 0.1365                 0.1851
 IR Inten    --     86.1711                 5.8756                11.5403

                     25                     26                     27
                      A                      A                      A
 Frequencies --    361.2316               372.5408               385.4058
 Red. masses --      1.1866                 3.1887                 2.9753
 Frc consts  --      0.0912                 0.2607                 0.2604
 IR Inten    --    102.5697                 2.0555                18.9289

                     28                     29                     30
                      A                      A                      A
 Frequencies --    421.1153               430.0165               453.4007
 Red. masses --      4.8803                 2.8094                 3.0341
 Frc consts  --      0.5099                 0.3061                 0.3675
 IR Inten    --      1.7333                18.2472                 5.0957

                     31                     32                     33
                      A                      A                      A
 Frequencies --    485.8222               495.9295               530.5710
 Red. masses --      3.4608                 4.6403                 5.3338
 Frc consts  --      0.4813                 0.6724                 0.8846
 IR Inten    --      0.0603                 9.1090                 6.5842

                     34                     35                     36
                      A                      A                      A
 Frequencies --    540.1716               568.0122               605.8597
 Red. masses --      1.2943                 2.8351                 3.9750
 Frc consts  --      0.2225                 0.5389                 0.8597
 IR Inten    --    165.1805                36.5237                 2.3094

                     37                     38                     39
                      A                      A                      A
 Frequencies --    617.8221               664.0209               669.0777
 Red. masses --      3.0304                 3.6462                 4.5540
 Frc consts  --      0.6815                 0.9472                 1.2011
 IR Inten    --     15.9528                15.9080                23.0164

                     40                     41                     42
                      A                      A                      A
 Frequencies --    700.0173               756.0277               783.0451
 Red. masses --      1.9587                 5.5160                 3.4081
 Frc consts  --      0.5655                 1.8576                 1.2312
 IR Inten    --     28.6671                29.5347                13.6892

                     43                     44                     45
                      A                      A                      A
 Frequencies --    791.5239               805.8868               806.7280
 Red. masses --      1.4917                 3.8850                 3.4518
 Frc consts  --      0.5506                 1.4866                 1.3236
 IR Inten    --     73.2074                 8.4141                 2.8033

                     46                     47                     48
                      A                      A                      A
 Frequencies --    868.3680               901.0548               917.7085
 Red. masses --      1.3618                 1.6393                 2.3657
 Frc consts  --      0.6050                 0.7842                 1.1739
 IR Inten    --     66.0595                 0.9925                37.6948

                     49                     50                     51
                      A                      A                      A
 Frequencies --    938.9260               960.7277               975.0577
 Red. masses --      1.4491                 2.2399                 1.5946
 Frc consts  --      0.7527                 1.2181                 0.8932
 IR Inten    --      2.6112                27.3144                 4.7925

                     52                     53                     54
                      A                      A                      A
 Frequencies --    981.3631              1000.7652              1008.3276
 Red. masses --      2.4426                 1.3529                 1.3612
 Frc consts  --      1.3860                 0.7983                 0.8154
 IR Inten    --     18.4790                38.4530                 2.7391

                     55                     56                     57
                      A                      A                      A
 Frequencies --   1020.6030              1038.4622              1042.8373
 Red. masses --      1.2728                 1.2237                 1.3665
 Frc consts  --      0.7811                 0.7775                 0.8756
 IR Inten    --      9.2175                13.8050                 1.2886

                     58                     59                     60
                      A                      A                      A
 Frequencies --   1048.1843              1063.9643              1098.7194
 Red. masses --      1.2404                 2.2660                 2.0423
 Frc consts  --      0.8029                 1.5114                 1.4526
 IR Inten    --     42.3756                29.5734                81.6860

                     61                     62                     63
                      A                      A                      A
 Frequencies --   1154.1552              1161.9450              1184.7539
 Red. masses --      1.7083                 1.1172                 1.5381
 Frc consts  --      1.3407                 0.8887                 1.2720
 IR Inten    --      2.0306                 6.5025                 1.8607

                     64                     65                     66
                      A                      A                      A
 Frequencies --   1208.9898              1218.0299              1230.2957
 Red. masses --      2.6744                 1.8535                 3.1254
 Frc consts  --      2.3032                 1.6201                 2.7872
 IR Inten    --    237.7762                17.8054                38.0381

                     67                     68                     69
                      A                      A                      A
 Frequencies --   1264.3803              1272.2940              1296.1247
 Red. masses --      1.8059                 2.1258                 2.6725
 Frc consts  --      1.7010                 2.0274                 2.6452
 IR Inten    --     92.8523               110.0607               150.8246

                     70                     71                     72
                      A                      A                      A
 Frequencies --   1310.9456              1375.3355              1377.5824
 Red. masses --      1.3896                 1.8732                 2.2441
 Frc consts  --      1.4070                 2.0876                 2.5092
 IR Inten    --      2.8026                19.6770                24.6577

                     73                     74                     75
                      A                      A                      A
 Frequencies --   1395.6132              1411.2514              1435.6199
 Red. masses --      1.2641                 2.7243                 1.1733
 Frc consts  --      1.4507                 3.1968                 1.4247
 IR Inten    --     38.9197               280.2328                19.8538

                     76                     77                     78
                      A                      A                      A
 Frequencies --   1442.0931              1443.7991              1454.6067
 Red. masses --      6.2580                 1.0684                 1.0540
 Frc consts  --      7.6678                 1.3122                 1.3140
 IR Inten    --     58.0289                 4.2159                 9.5705

                     79                     80                     81
                      A                      A                      A
 Frequencies --   1466.3179              1471.1518              1478.3640
 Red. masses --      2.6450                 1.1105                 1.0884
 Frc consts  --      3.3507                 1.4161                 1.4015
 IR Inten    --     50.3273                 2.3445                 3.4198

                     82                     83                     84
                      A                      A                      A
 Frequencies --   1502.7843              1574.7541              1618.9055
 Red. masses --      3.2672                 4.7371                 1.0828
 Frc consts  --      4.3473                 6.9214                 1.6721
 IR Inten    --    130.2330                51.1870               224.9534

                     85                     86                     87
                      A                      A                      A
 Frequencies --   1635.6648              1667.6301              1682.6376
 Red. masses --      1.0780                 8.2708                 6.5289
 Frc consts  --      1.6993                13.5518                10.8911
 IR Inten    --    102.5052                50.7834               129.8681

                     88                     89                     90
                      A                      A                      A
 Frequencies --   1716.0821              1756.7451              3061.9418
 Red. masses --      7.2082                 5.3190                 1.0354
 Frc consts  --     12.5071                 9.6716                 5.7193
 IR Inten    --     11.4469                 4.1295                14.1408

                     91                     92                     93
                      A                      A                      A
 Frequencies --   3072.9512              3157.6861              3164.3627
 Red. masses --      1.0373                 1.0606                 1.1061
 Frc consts  --      5.7712                 6.2310                 6.5257
 IR Inten    --     11.2369                 4.0728                 4.1450

                     94                     95                     96
                      A                      A                      A
 Frequencies --   3167.2352              3174.2567              3180.3605
 Red. masses --      1.1052                 1.1049                 1.0964
 Frc consts  --      6.5320                 6.5595                 6.5342
 IR Inten    --      6.7968                10.2894                18.3249

                     97                     98                     99
                      A                      A                      A
 Frequencies --   3186.4379              3214.1619              3225.1691
 Red. masses --      1.1040                 1.0887                 1.0934
 Frc consts  --      6.6042                 6.6265                 6.7009
 IR Inten    --     12.4765                 5.0554                 4.6273

                    100                    101                    102
                      A                      A                      A
 Frequencies --   3230.0095              3238.5059              3242.9302
 Red. masses --      1.0941                 1.0960                 1.0969
 Frc consts  --      6.7254                 6.7727                 6.7969
 IR Inten    --      1.6524                 1.3232                 3.8535

                    103                    104                    105
                      A                      A                      A
 Frequencies --   3263.3505              3275.8080              3822.4389
 Red. masses --      1.1178                 1.0940                 1.0505
 Frc consts  --      7.0135                 6.9166                 9.0430
 IR Inten    --      6.1569                 5.9422               286.3994

                    106                    107                    108
                      A                      A                      A
 Frequencies --   3850.8972              3921.4144              3930.9283
 Red. masses --      1.0471                 1.0774                 1.0799
 Frc consts  --      9.1486                 9.7612                 9.8320
 IR Inten    --     90.9485               183.9951                76.3904

 - Thermochemistry -
 -------------------
 Temperature   298.150 Kelvin.  Pressure   1.00000 Atm.
 Atom     1 has atomic number  6 and mass  12.00000

 Molecular mass:   282.10227 amu.
 Principal axes and moments of inertia in atomic units:
                           1         2         3
     Eigenvalues --  3772.337437417.182228709.43497
           X            0.99956  -0.02640  -0.01378
           Y            0.02630   0.99963  -0.00756
           Z            0.01398   0.00719   0.99988
 This molecule is an asymmetric top.
 Rotational symmetry number  1.
 Warning -- assumption of classical behavior for rotation
           may cause significant error
 Rotational temperatures (Kelvin)      0.02296     0.01168     0.00994
 Rotational constants (GHZ):           0.47841     0.24332     0.20722
 Zero-point vibrational energy     813821.7 (Joules/Mol)
                                  194.50806 (Kcal/Mol)
 Warning -- explicit consideration of  37 degrees of freedom as
           vibrations may cause significant error
 Vibrational temperatures:     51.58    59.31    62.49   106.57   113.10
          (Kelvin)            144.34   171.95   185.18   188.12   208.96
                              212.81   237.39   283.97   297.00   310.57
                              320.41   336.36   360.17   399.20   403.24
                              420.10   428.83   477.58   495.79   519.73
                              536.00   554.51   605.89   618.70   652.34
                              698.99   713.53   763.37   777.19   817.24
                              871.70   888.91   955.38   962.65  1007.17
                             1087.75  1126.63  1138.82  1159.49  1160.70
                             1249.39  1296.42  1320.38  1350.90  1382.27
                             1402.89  1411.96  1439.88  1450.76  1468.42
                             1494.11  1500.41  1508.10  1530.81  1580.81
                             1660.57  1671.78  1704.59  1739.46  1752.47
                             1770.12  1819.16  1830.55  1864.83  1886.16
                             1978.80  1982.03  2007.97  2030.47  2065.53
                             2074.85  2077.30  2092.85  2109.70  2116.66
                             2127.03  2162.17  2265.72  2329.24  2353.35
                             2399.34  2420.94  2469.06  2527.56  4405.45
                             4421.29  4543.20  4552.81  4556.94  4567.04
                             4575.82  4584.57  4624.46  4640.29  4647.26
                             4659.48  4665.85  4695.23  4713.15  5499.63
                             5540.58  5642.03  5655.72

 Zero-point correction=                           0.309968 (Hartree/Particle)
 Thermal correction to Energy=                    0.332105
 Thermal correction to Enthalpy=                  0.333049
 Thermal correction to Gibbs Free Energy=         0.259524
 Sum of electronic and zero-point Energies=          -1267.497368
 Sum of electronic and thermal Energies=             -1267.475232
 Sum of electronic and thermal Enthalpies=           -1267.474288
 Sum of electronic and thermal Free Energies=        -1267.547813

                     E (Thermal)             CV                S
                      KCal/Mol        Cal/Mol-Kelvin    Cal/Mol-Kelvin
 Total                  208.399             82.022            154.748
 Electronic               0.000              0.000              0.000
 Translational            0.889              2.981             42.809
 Rotational               0.889              2.981             33.854
 Vibrational            206.622             76.060             78.084
 Vibration     1          0.594              1.982              5.476
 Vibration     2          0.594              1.981              5.199
 Vibration     3          0.595              1.980              5.096
 Vibration     4          0.599              1.966              4.042
 Vibration     5          0.600              1.964              3.925
 Vibration     6          0.604              1.949              3.448
 Vibration     7          0.609              1.933              3.108
 Vibration     8          0.611              1.925              2.965
 Vibration     9          0.612              1.923              2.935
 Vibration    10          0.617              1.908              2.734
 Vibration    11          0.617              1.905              2.699
 Vibration    12          0.623              1.885              2.492
 Vibration    13          0.637              1.844              2.158
 Vibration    14          0.641              1.831              2.075
 Vibration    15          0.645              1.817              1.994
 Vibration    16          0.648              1.807              1.937
 Vibration    17          0.654              1.789              1.850
 Vibration    18          0.663              1.762              1.728
 Vibration    19          0.678              1.715              1.549
 Vibration    20          0.680              1.710              1.532
 Vibration    21          0.687              1.689              1.462
 Vibration    22          0.691              1.677              1.428
 Vibration    23          0.714              1.612              1.251
 Vibration    24          0.723              1.586              1.191
 Vibration    25          0.735              1.552              1.117
 Vibration    26          0.744              1.529              1.069
 Vibration    27          0.754              1.501              1.018
 Vibration    28          0.784              1.424              0.888
 Vibration    29          0.791              1.405              0.859
 Vibration    30          0.812              1.353              0.786
 Vibration    31          0.842              1.281              0.695
 Vibration    32          0.851              1.259              0.668
 Vibration    33          0.886              1.182              0.586
 Vibration    34          0.895              1.161              0.565
 Vibration    35          0.924              1.100              0.508
 Vibration    36          0.964              1.019              0.440
 Vibration    37          0.978              0.994              0.420

 Normal termination of Gaussian 09 at Wed Sep  9 12:51:08 2020.
