 Gaussian 09, Revision D.01,
 Gaussian 09:  ES64L-G09RevD.01 24-Apr-2013

 --------------------------------------------
 #n wB97XD/Gen scrf(smd,solvent=toluene) freq
 --------------------------------------------

 ---------------------------------
 dmad cycloaddition toluene - freq
 ---------------------------------
 Symbolic Z-matrix:
 Charge =  0 Multiplicity = 1

                         Standard orientation:
 ---------------------------------------------------------------------
 Center     Atomic      Atomic             Coordinates (Angstroms)
 Number     Number       Type             X           Y           Z
 ---------------------------------------------------------------------
      1          7           0        0.361560    0.311381   -0.494430
      2          7           0       -0.361570    0.311431    0.494440
      3          6           0        1.765800    0.365080   -0.170930
      4          6           0       -1.765810    0.365092    0.170950
      5          8           0       -2.358209    1.400023    0.133320
      6          8           0        2.358191    1.400019   -0.133350
      7          8           0       -2.239021   -0.852047    0.037050
      8          8           0        2.239029   -0.852051   -0.037020
      9          6           0        3.655949   -0.958572    0.172590
     10          1           0        3.854158   -2.021462    0.275440
     11          1           0        4.193219   -0.551762   -0.683360
     12          1           0        3.944509   -0.429352    1.079710
     13          6           0       -3.655921   -0.958596   -0.172610
     14          1           0       -4.193211   -0.552176    0.683520
     15          1           0       -3.944561   -0.429046   -1.079510
     16          1           0       -3.854062   -2.021456   -0.275880
 ---------------------------------------------------------------------

 SCF Done:  E(RwB97XD) =  -566.434930933     A.U. after   13 cycles

 The electronic state is 1-A.
 Alpha  occ. eigenvalues --  -19.32686 -19.32686 -19.26266 -19.26266 -14.53544
 Alpha  occ. eigenvalues --  -14.53482 -10.45754 -10.45754 -10.34808 -10.34808
 Alpha  occ. eigenvalues --   -1.26272  -1.24944  -1.18191  -1.15755  -1.15328
 Alpha  occ. eigenvalues --   -0.91902  -0.85367  -0.81217  -0.71328  -0.67224
 Alpha  occ. eigenvalues --   -0.66287  -0.62914  -0.60330  -0.59766  -0.59155
 Alpha  occ. eigenvalues --   -0.57027  -0.54079  -0.54043  -0.51975  -0.49564
 Alpha  occ. eigenvalues --   -0.48903  -0.47133  -0.46960  -0.41727  -0.41663
 Alpha  occ. eigenvalues --   -0.41379  -0.41257  -0.34695
 Alpha virt. eigenvalues --   -0.01464   0.04659   0.05502   0.06348   0.06626
 Alpha virt. eigenvalues --    0.06882   0.07358   0.07742   0.08424   0.08488
 Alpha virt. eigenvalues --    0.08844   0.10160   0.10207   0.11910   0.12231

 Mulliken charges:
               1
     1  N   -0.118506
     2  N   -0.118507
     3  C    0.520815
     4  C    0.520821
     5  O   -0.391631
     6  O   -0.391631
     7  O   -0.286470
     8  O   -0.286473
     9  C   -0.234172
    10  H    0.167023
    11  H    0.171044
    12  H    0.171901
    13  C   -0.234182
    14  H    0.171044
    15  H    0.171903
    16  H    0.167022
 Sum of Mulliken charges =   0.00000

 Dipole moment (field-independent basis, Debye):
    X=              0.0001    Y=             -4.7928    Z=              0.0000  Tot=              4.7928
 Quadrupole moment (field-independent basis, Debye-Ang):
   XX=            -35.5715   YY=            -62.8660   ZZ=            -56.3974
   XY=              0.0001   XZ=              1.8406   YZ=              0.0001

  Exact polarizability: 114.626   0.000  83.624  -1.673   0.000  63.735
 Approx polarizability:  90.456   0.000  87.196  -3.094   0.000  67.323

                      1                      2                      3
                      A                      A                      A
 Frequencies --     37.6358                78.8638                80.6214
 Red. masses --      5.9534                 4.1637                 4.9817
 Frc consts  --      0.0050                 0.0153                 0.0191
 IR Inten    --      0.0135                 2.7492                 1.8291

                      4                      5                      6
                      A                      A                      A
 Frequencies --     95.8541               126.1662               149.4558
 Red. masses --      4.3229                 1.7178                 1.2082
 Frc consts  --      0.0234                 0.0161                 0.0159
 IR Inten    --      1.4275                 0.0282                 0.1574

                      7                      8                      9
                      A                      A                      A
 Frequencies --    159.6648               256.2244               267.7510
 Red. masses --      1.7132                 7.2334                 9.4187
 Frc consts  --      0.0257                 0.2798                 0.3978
 IR Inten    --      0.0056                10.2404                 1.8974

                     10                     11                     12
                      A                      A                      A
 Frequencies --    282.8544               310.8468               445.3110
 Red. masses --      4.1987                 3.9779                 9.4705
 Frc consts  --      0.1979                 0.2265                 1.1065
 IR Inten    --     10.2794                17.7646                34.9184

                     13                     14                     15
                      A                      A                      A
 Frequencies --    605.5710               631.8018               648.7300
 Red. masses --      9.8477                11.1595                 8.2555
 Frc consts  --      2.1277                 2.6246                 2.0470
 IR Inten    --      0.5894                 0.0672                12.6273

                     16                     17                     18
                      A                      A                      A
 Frequencies --    846.8077               863.1439               916.9825
 Red. masses --     11.5772                 6.3861                 6.0058
 Frc consts  --      4.8913                 2.8032                 2.9754
 IR Inten    --     43.4832                 5.0005                66.2326

                     19                     20                     21
                      A                      A                      A
 Frequencies --    981.8296              1056.9886              1061.2933
 Red. masses --      9.0302                 8.4472                 9.3679
 Frc consts  --      5.1288                 5.5604                 6.2168
 IR Inten    --      6.1014                32.7072                 6.0481

                     22                     23                     24
                      A                      A                      A
 Frequencies --   1189.9810              1190.0297              1238.5754
 Red. masses --      1.2797                 1.2797                 1.4669
 Frc consts  --      1.0677                 1.0678                 1.3259
 IR Inten    --      1.5541                 1.1417                 0.9471

                     25                     26                     27
                      A                      A                      A
 Frequencies --   1238.7606              1300.5564              1340.2985
 Red. masses --      1.4977                 7.3202                 7.1778
 Frc consts  --      1.3541                 7.2951                 7.5971
 IR Inten    --     32.5805              1099.9064               336.4379

                     28                     29                     30
                      A                      A                      A
 Frequencies --   1488.4125              1488.4986              1495.0999
 Red. masses --      1.0425                 1.0422                 1.0605
 Frc consts  --      1.3607                 1.3605                 1.3967
 IR Inten    --      9.4122                22.7595                16.7244

                     31                     32                     33
                      A                      A                      A
 Frequencies --   1495.1507              1503.6216              1504.2742
 Red. masses --      1.0601                 1.1823                 1.1967
 Frc consts  --      1.3963                 1.5749                 1.5955
 IR Inten    --     12.3833                56.1176                 6.5501

                     34                     35                     36
                      A                      A                      A
 Frequencies --   1723.4859              1854.7711              1873.6782
 Red. masses --     13.9854                12.1058                12.0318
 Frc consts  --     24.4759                24.5371                24.8870
 IR Inten    --      0.2778                83.9631               824.2605

                     37                     38                     39
                      A                      A                      A
 Frequencies --   3085.9263              3086.1062              3173.1329
 Red. masses --      1.0303                 1.0304                 1.1086
 Frc consts  --      5.7807                 5.7818                 6.5764
 IR Inten    --     46.0784                 2.4731                 3.0985

                     40                     41                     42
                      A                      A                      A
 Frequencies --   3173.1713              3202.6329              3202.6576
 Red. masses --      1.1085                 1.1072                 1.1072
 Frc consts  --      6.5764                 6.6910                 6.6910
 IR Inten    --     19.2597                 0.2758                13.2591

 - Thermochemistry -
 -------------------
 Temperature   298.150 Kelvin.  Pressure   1.00000 Atm.
 Atom     1 has atomic number  7 and mass  14.00307

 Molecular mass:   146.03276 amu.
 Principal axes and moments of inertia in atomic units:
                           1         2         3
     Eigenvalues --   482.678953023.301223418.19918
           X            0.99998   0.00000   0.00592
           Y            0.00000   1.00000   0.00000
           Z           -0.00592   0.00000   0.99998
 This molecule is an asymmetric top.
 Rotational symmetry number  1.
 Warning -- assumption of classical behavior for rotation
           may cause significant error
 Rotational temperatures (Kelvin)      0.17944     0.02865     0.02534
 Rotational constants (GHZ):           3.73901     0.59694     0.52798
 Zero-point vibrational energy     303571.7 (Joules/Mol)
                                   72.55537 (Kcal/Mol)
 Warning -- explicit consideration of  13 degrees of freedom as
           vibrations may cause significant error
 Vibrational temperatures:     54.15   113.47   116.00   137.91   181.52
          (Kelvin)            215.03   229.72   368.65   385.23   406.96
                              447.24   640.70   871.28   909.02   933.38
                             1218.37  1241.87  1319.33  1412.63  1520.77
                             1526.96  1712.12  1712.19  1782.03  1782.30
                             1871.21  1928.39  2141.49  2141.61  2151.11
                             2151.19  2163.37  2164.31  2479.71  2668.60
                             2695.80  4439.95  4440.21  4565.42  4565.48
                             4607.87  4607.90

 Zero-point correction=                           0.115624 (Hartree/Particle)
 Thermal correction to Energy=                    0.126452
 Thermal correction to Enthalpy=                  0.127396
 Thermal correction to Gibbs Free Energy=         0.077517
 Sum of electronic and zero-point Energies=           -566.319307
 Sum of electronic and thermal Energies=              -566.308479
 Sum of electronic and thermal Enthalpies=            -566.307535
 Sum of electronic and thermal Free Energies=         -566.357414

                     E (Thermal)             CV                S
                      KCal/Mol        Cal/Mol-Kelvin    Cal/Mol-Kelvin
 Total                   79.350             34.903            104.980
 Electronic               0.000              0.000              0.000
 Translational            0.889              2.981             40.847
 Rotational               0.889              2.981             29.990
 Vibrational             77.572             28.941             34.142
 Vibration     1          0.594              1.982              5.380
 Vibration     2          0.600              1.963              3.919
 Vibration     3          0.600              1.962              3.876
 Vibration     4          0.603              1.952              3.537
 Vibration     5          0.611              1.927              3.004
 Vibration     6          0.618              1.903              2.679
 Vibration     7          0.622              1.892              2.554
 Vibration     8          0.666              1.752              1.687
 Vibration     9          0.673              1.732              1.611
 Vibration    10          0.682              1.705              1.516
 Vibration    11          0.700              1.653              1.358
 Vibration    12          0.805              1.371              0.810
 Vibration    13          0.964              1.020              0.440

 Optimization completed.
    -- Stationary point found.
 Normal termination of Gaussian 09 at Wed Feb  9 15:29:43 2022.
