 Gaussian 09, Revision D.01,
 Gaussian 09:  ES64L-G09RevD.01 24-Apr-2013

 -------------------------------------------
 #n wB97XD/Gen scrf(smd,solvent=toluene) opt
 -------------------------------------------

 --------------------------------
 dmad cycloaddition toluene - opt
 --------------------------------
 Symbolic Z-matrix:
 Charge =  0 Multiplicity = 1

 SCF Done:  E(RwB97XD) =  -566.434608156     A.U. after   14 cycles
 SCF Done:  E(RwB97XD) =  -566.434810683     A.U. after   12 cycles
 SCF Done:  E(RwB97XD) =  -566.434470282     A.U. after   13 cycles
 SCF Done:  E(RwB97XD) =  -566.434902887     A.U. after    7 cycles
 SCF Done:  E(RwB97XD) =  -566.434918039     A.U. after   12 cycles
 SCF Done:  E(RwB97XD) =  -566.434924583     A.U. after   11 cycles
 SCF Done:  E(RwB97XD) =  -566.434930161     A.U. after   10 cycles
 SCF Done:  E(RwB97XD) =  -566.434930393     A.U. after   10 cycles
 SCF Done:  E(RwB97XD) =  -566.434930732     A.U. after   10 cycles
 SCF Done:  E(RwB97XD) =  -566.434930922     A.U. after    7 cycles
 SCF Done:  E(RwB97XD) =  -566.434930934     A.U. after    7 cycles
 Optimization completed.
    -- Stationary point found.

                         Standard orientation:
 ---------------------------------------------------------------------
 Center     Atomic      Atomic             Coordinates (Angstroms)
 Number     Number       Type             X           Y           Z
 ---------------------------------------------------------------------
      1          7           0        0.361561    0.311381   -0.494426
      2          7           0       -0.361570    0.311432    0.494439
      3          6           0        1.765797    0.365076   -0.170930
      4          6           0       -1.765809    0.365089    0.170949
      5          8           0       -2.358209    1.400024    0.133322
      6          8           0        2.358189    1.400018   -0.133350
      7          8           0       -2.239021   -0.852046    0.037047
      8          8           0        2.239033   -0.852049   -0.037024
      9          6           0        3.655945   -0.958571    0.172595
     10          1           0        3.854158   -2.021455    0.275437
     11          1           0        4.193217   -0.551758   -0.683359
     12          1           0        3.944515   -0.429354    1.079712
     13          6           0       -3.655924   -0.958597   -0.172610
     14          1           0       -4.193208   -0.552178    0.683524
     15          1           0       -3.944557   -0.429046   -1.079511
     16          1           0       -3.854056   -2.021455   -0.275879
 ---------------------------------------------------------------------

 The electronic state is 1-A.
 Alpha  occ. eigenvalues --  -19.32686 -19.32686 -19.26266 -19.26265 -14.53544
 Alpha  occ. eigenvalues --  -14.53482 -10.45754 -10.45754 -10.34808 -10.34808
 Alpha  occ. eigenvalues --   -1.26272  -1.24944  -1.18191  -1.15755  -1.15328
 Alpha  occ. eigenvalues --   -0.91902  -0.85367  -0.81217  -0.71328  -0.67224
 Alpha  occ. eigenvalues --   -0.66287  -0.62914  -0.60330  -0.59766  -0.59155
 Alpha  occ. eigenvalues --   -0.57027  -0.54079  -0.54043  -0.51975  -0.49564
 Alpha  occ. eigenvalues --   -0.48903  -0.47133  -0.46960  -0.41727  -0.41663
 Alpha  occ. eigenvalues --   -0.41379  -0.41257  -0.34695
 Alpha virt. eigenvalues --   -0.01464   0.04659   0.05502   0.06348   0.06626
 Alpha virt. eigenvalues --    0.06882   0.07358   0.07742   0.08424   0.08488
 Alpha virt. eigenvalues --    0.08844   0.10160   0.10207   0.11910   0.12231

 Mulliken charges:
               1
     1  N   -0.118507
     2  N   -0.118507
     3  C    0.520819
     4  C    0.520822
     5  O   -0.391637
     6  O   -0.391636
     7  O   -0.286469
     8  O   -0.286471
     9  C   -0.234172
    10  H    0.167023
    11  H    0.171043
    12  H    0.171901
    13  C   -0.234179
    14  H    0.171044
    15  H    0.171904
    16  H    0.167022
 Sum of Mulliken charges =   0.00000

 Dipole moment (field-independent basis, Debye):
    X=              0.0000    Y=             -4.7928    Z=              0.0000  Tot=              4.7928
 Quadrupole moment (field-independent basis, Debye-Ang):
   XX=            -35.5716   YY=            -62.8661   ZZ=            -56.3974
   XY=              0.0002   XZ=              1.8407   YZ=              0.0001

 Normal termination of Gaussian 09 at Wed Feb  9 13:27:03 2022.
