 Gaussian 09, Revision D.01,
 Gaussian 09:  ES64L-G09RevD.01 24-Apr-2013

 -------------------------------------------
 #n wB97XD/Gen scrf(smd,solvent=toluene) opt
 -------------------------------------------

 --------------------------------------
 Cycloaddition product in toluene - opt
 --------------------------------------
 Symbolic Z-matrix:
 Charge =  0 Multiplicity = 3

 SCF Done:  E(UwB97XD) =  -837.922426835     A.U. after   20 cycles
 SCF Done:  E(UwB97XD) =  -837.922505345     A.U. after   15 cycles
 SCF Done:  E(UwB97XD) =  -837.921128699     A.U. after   17 cycles
 SCF Done:  E(UwB97XD) =  -837.922789619     A.U. after   11 cycles
 SCF Done:  E(UwB97XD) =  -837.922834032     A.U. after   15 cycles
 SCF Done:  E(UwB97XD) =  -837.922875336     A.U. after   14 cycles
 SCF Done:  E(UwB97XD) =  -837.922917179     A.U. after   14 cycles
 SCF Done:  E(UwB97XD) =  -837.922918704     A.U. after   13 cycles
 SCF Done:  E(UwB97XD) =  -837.922922095     A.U. after   13 cycles
 SCF Done:  E(UwB97XD) =  -837.922923613     A.U. after   12 cycles
 SCF Done:  E(UwB97XD) =  -837.922923143     A.U. after    9 cycles
 SCF Done:  E(UwB97XD) =  -837.922922984     A.U. after    9 cycles
 SCF Done:  E(UwB97XD) =  -837.922922793     A.U. after    9 cycles
 Optimization completed.
    -- Stationary point found.

                         Standard orientation:
 ---------------------------------------------------------------------
 Center     Atomic      Atomic             Coordinates (Angstroms)
 Number     Number       Type             X           Y           Z
 ---------------------------------------------------------------------
      1          6           0        0.331940    0.686476   -0.576127
      2          6           0        0.908212    1.859561    0.273986
      3          6           0       -1.360166    1.992181    0.591969
      4          6           0       -1.089563    1.205357   -0.652701
      5          1           0        0.803776    0.635758   -1.553550
      6          1           0       -1.864677    0.719945   -1.220407
      7          6           0       -0.103871    1.928374    1.443015
      8          1           0        0.042871    2.825879    2.044393
      9          1           0       -0.077013    1.054323    2.096586
     10          6           0        0.466038    3.018609   -0.569032
     11          1           0        0.937578    3.988189   -0.626999
     12          6           0       -0.962852    2.725428   -0.695258
     13          1           0       -1.671890    3.320584   -1.248421
     14          1           0        1.958459    1.785077    0.530237
     15          1           0       -2.353539    2.068063    1.006055
     16          7           0       -0.345521   -1.235953    0.860787
     17          7           0        0.526706   -0.628317    0.080351
     18          6           0       -1.678116   -1.310485    0.495045
     19          6           0        1.834423   -1.157448    0.183389
     20          8           0        2.120682   -2.118357    0.834407
     21          8           0       -2.582141   -1.207096    1.281863
     22          8           0        2.674115   -0.455523   -0.572238
     23          8           0       -1.824030   -1.664909   -0.790754
     24          6           0       -3.166610   -1.865595   -1.224589
     25          1           0       -3.102676   -2.094882   -2.285716
     26          1           0       -3.627118   -2.696315   -0.689574
     27          1           0       -3.764234   -0.966069   -1.070238
     28          6           0        4.027497   -0.913145   -0.575491
     29          1           0        4.564426   -0.232021   -1.230511
     30          1           0        4.447090   -0.876819    0.429438
     31          1           0        4.088051   -1.930624   -0.960715
 ---------------------------------------------------------------------

 The electronic state is 3-A.
 Alpha  occ. eigenvalues --  -19.31367 -19.29970 -19.24237 -19.23076 -14.53964
 Alpha  occ. eigenvalues --  -14.48341 -10.44941 -10.43446 -10.34436 -10.34192
 Alpha  occ. eigenvalues --  -10.33443 -10.30321 -10.30170 -10.30049 -10.29996
 Alpha  occ. eigenvalues --  -10.29601 -10.28578  -1.24477  -1.22485  -1.15465
 Alpha  occ. eigenvalues --   -1.13114  -1.12463  -1.04202  -0.94999  -0.86774
 Alpha  occ. eigenvalues --   -0.84369  -0.83856  -0.81771  -0.80185  -0.71184
 Alpha  occ. eigenvalues --   -0.69940  -0.66384  -0.65663  -0.64974  -0.64433
 Alpha  occ. eigenvalues --   -0.64256  -0.61155  -0.60305  -0.58101  -0.57707
 Alpha  occ. eigenvalues --   -0.57453  -0.55986  -0.53370  -0.52718  -0.52285
 Alpha  occ. eigenvalues --   -0.51812  -0.50143  -0.48904  -0.47279  -0.46929
 Alpha  occ. eigenvalues --   -0.46073  -0.45257  -0.45127  -0.43812  -0.43192
 Alpha  occ. eigenvalues --   -0.40616  -0.40027  -0.39491  -0.38634  -0.38122
 Alpha  occ. eigenvalues --   -0.37512  -0.36492  -0.30565  -0.26841
 Alpha virt. eigenvalues --    0.04084   0.05256   0.05490   0.06111   0.06950
 Alpha virt. eigenvalues --    0.07211   0.07684   0.07800   0.08092   0.09005
 Alpha virt. eigenvalues --    0.09250   0.09360   0.09669   0.10148   0.10402

  Beta  occ. eigenvalues --  -19.31323 -19.29899 -19.24129 -19.22974 -14.53452
  Beta  occ. eigenvalues --  -14.47172 -10.44952 -10.43464 -10.34389 -10.34194
  Beta  occ. eigenvalues --  -10.33436 -10.30234 -10.30195 -10.30131 -10.29832
  Beta  occ. eigenvalues --  -10.28496 -10.28495  -1.24154  -1.22162  -1.14698
  Beta  occ. eigenvalues --   -1.12437  -1.11882  -1.03520  -0.93179  -0.86206
  Beta  occ. eigenvalues --   -0.84003  -0.83469  -0.80243  -0.79438  -0.70527
  Beta  occ. eigenvalues --   -0.69280  -0.65966  -0.65244  -0.64593  -0.64101
  Beta  occ. eigenvalues --   -0.63240  -0.60243  -0.59575  -0.57615  -0.57332
  Beta  occ. eigenvalues --   -0.57116  -0.55388  -0.53153  -0.52365  -0.51388
  Beta  occ. eigenvalues --   -0.51103  -0.49309  -0.48200  -0.46729  -0.45917
  Beta  occ. eigenvalues --   -0.45696  -0.45038  -0.44024  -0.43094  -0.41190
  Beta  occ. eigenvalues --   -0.39913  -0.39388  -0.39033  -0.37860  -0.37361
  Beta  occ. eigenvalues --   -0.36771  -0.35098
  Beta virt. eigenvalues --   -0.03857   0.00906   0.04406   0.05344   0.05724
  Beta virt. eigenvalues --    0.06587   0.07048   0.07327   0.07862   0.07936
  Beta virt. eigenvalues --    0.08500   0.09224   0.09436   0.09792   0.09950

 Mulliken charges and spin densities:
               1          2
     1  C    0.067396   0.033158
     2  C    0.009354  -0.030986
     3  C   -0.177779   0.077052
     4  C   -0.375994   0.042575
     5  H    0.163422   0.004884
     6  H    0.160305  -0.000838
     7  C   -0.278801   0.004122
     8  H    0.143129   0.002241
     9  H    0.172500   0.001194
    10  C   -0.214330   0.972090
    11  H    0.166415  -0.025948
    12  C   -0.110904  -0.055680
    13  H    0.157262  -0.000024
    14  H    0.167203  -0.000361
    15  H    0.162350   0.000659
    16  N   -0.158076   0.594004
    17  N   -0.095441   0.226485
    18  C    0.494809   0.004381
    19  C    0.322292   0.021097
    20  O   -0.415298   0.048391
    21  O   -0.430384   0.040699
    22  O   -0.198559   0.018254
    23  O   -0.219802   0.014744
    24  C   -0.254053   0.004239
    25  H    0.159937   0.001413
    26  H    0.169639   0.000494
    27  H    0.161361   0.000330
    28  C   -0.253266  -0.000307
    29  H    0.162972  -0.000033
    30  H    0.170637   0.000784
    31  H    0.171702   0.000889
 Sum of Mulliken charges =   0.00000   2.00000

 Dipole moment (field-independent basis, Debye):
    X=              1.6650    Y=              3.8795    Z=             -4.6091  Tot=              6.2503
 Quadrupole moment (field-independent basis, Debye-Ang):
   XX=            -83.2994   YY=           -100.4496   ZZ=           -102.0902
   XY=              1.8106   XZ=              5.8638   YZ=             10.1605

 1\1\GINC-D10S7B2\FOpt\UwB97XD\Gen\C11H14N2O4(3)\PMMASS\09-Feb-2022\0\\
 #n wB97XD/Gen scrf(smd,solvent=toluene) opt\\Cycloaddition product in
 toluene - opt\\0,3\C,0.2696566262,0.7180633535,-0.5432273395\C,0.73912
 81204,1.9129205431,0.3415461874\C,-1.538388624,1.8673007526,0.61554940
 24\C,-1.1853908174,1.1297759305,-0.6386321333\H,0.7624004636,0.7238729
 138,-1.5115900817\H,-1.9105825533,0.5994752796,-1.2315872826\C,-0.2972
 11066,1.8803327613,1.4907266679\H,-0.2303518976,2.7733538657,2.1126152
 145\H,-0.2165384725,0.9970940787,2.1272976465\C,0.2263881245,3.0529878

 Normal termination of Gaussian 09 at Wed Feb  9 18:50:42 2022.
