 Gaussian 09, Revision D.01,
 Gaussian 09:  ES64L-G09RevD.01 24-Apr-2013

 --------------------------------------------
 #n wB97XD/Gen scrf(smd,solvent=toluene) freq
 --------------------------------------------

 ----------------------------------
 clasisen product in toluene - freq
 ----------------------------------
 Symbolic Z-matrix:
 Charge =  0 Multiplicity = 3

                         Standard orientation:
 ---------------------------------------------------------------------
 Center     Atomic      Atomic             Coordinates (Angstroms)
 Number     Number       Type             X           Y           Z
 ---------------------------------------------------------------------
      1          6           0        0.331940    0.686479   -0.576130
      2          6           0        0.908211    1.859559    0.273990
      3          6           0       -1.360168    1.992181    0.591970
      4          6           0       -1.089559    1.205361   -0.652700
      5          1           0        0.803780    0.635759   -1.553550
      6          1           0       -1.864680    0.719941   -1.220410
      7          6           0       -0.103869    1.928370    1.443010
      8          1           0        0.042872    2.825879    2.044390
      9          1           0       -0.077009    1.054320    2.096590
     10          6           0        0.466043    3.018609   -0.569030
     11          1           0        0.937583    3.988189   -0.627000
     12          6           0       -0.962848    2.725430   -0.695260
     13          1           0       -1.671887    3.320581   -1.248420
     14          1           0        1.958461    1.785078    0.530240
     15          1           0       -2.353538    2.068062    1.006050
     16          7           0       -0.345522   -1.235950    0.860790
     17          7           0        0.526709   -0.628321    0.080350
     18          6           0       -1.678122   -1.310479    0.495050
     19          6           0        1.834418   -1.157452    0.183390
     20          8           0        2.120677   -2.118363    0.834410
     21          8           0       -2.582142   -1.207098    1.281860
     22          8           0        2.674119   -0.455523   -0.572240
     23          8           0       -1.824032   -1.664909   -0.790750
     24          6           0       -3.166612   -1.865587   -1.224590
     25          1           0       -3.102683   -2.094877   -2.285720
     26          1           0       -3.627123   -2.696307   -0.689570
     27          1           0       -3.764231   -0.966067   -1.070240
     28          6           0        4.027499   -0.913144   -0.575490
     29          1           0        4.564429   -0.232025   -1.230510
     30          1           0        4.447089   -0.876825    0.429440
     31          1           0        4.088048   -1.930625   -0.960710
 ---------------------------------------------------------------------

 SCF Done:  E(UwB97XD) =  -837.922922792     A.U. after   19 cycles

 The electronic state is 3-A.
 Alpha  occ. eigenvalues --  -19.31366 -19.29970 -19.24237 -19.23076 -14.53964
 Alpha  occ. eigenvalues --  -14.48341 -10.44941 -10.43446 -10.34436 -10.34192
 Alpha  occ. eigenvalues --  -10.33443 -10.30322 -10.30170 -10.30049 -10.29996
 Alpha  occ. eigenvalues --  -10.29601 -10.28578  -1.24476  -1.22485  -1.15465
 Alpha  occ. eigenvalues --   -1.13113  -1.12463  -1.04202  -0.94999  -0.86774
 Alpha  occ. eigenvalues --   -0.84369  -0.83855  -0.81771  -0.80185  -0.71184
 Alpha  occ. eigenvalues --   -0.69940  -0.66384  -0.65663  -0.64974  -0.64433
 Alpha  occ. eigenvalues --   -0.64256  -0.61155  -0.60305  -0.58101  -0.57707
 Alpha  occ. eigenvalues --   -0.57453  -0.55986  -0.53370  -0.52718  -0.52285
 Alpha  occ. eigenvalues --   -0.51812  -0.50144  -0.48904  -0.47279  -0.46929
 Alpha  occ. eigenvalues --   -0.46073  -0.45257  -0.45127  -0.43812  -0.43192
 Alpha  occ. eigenvalues --   -0.40616  -0.40027  -0.39491  -0.38634  -0.38122
 Alpha  occ. eigenvalues --   -0.37512  -0.36492  -0.30565  -0.26841
 Alpha virt. eigenvalues --    0.04084   0.05256   0.05490   0.06111   0.06950
 Alpha virt. eigenvalues --    0.07211   0.07684   0.07800   0.08092   0.09006
 Alpha virt. eigenvalues --    0.09250   0.09360   0.09669   0.10148   0.10402

  Beta  occ. eigenvalues --  -19.31323 -19.29899 -19.24129 -19.22974 -14.53452
  Beta  occ. eigenvalues --  -14.47172 -10.44952 -10.43464 -10.34389 -10.34194
  Beta  occ. eigenvalues --  -10.33436 -10.30234 -10.30195 -10.30131 -10.29832
  Beta  occ. eigenvalues --  -10.28496 -10.28495  -1.24153  -1.22162  -1.14698
  Beta  occ. eigenvalues --   -1.12438  -1.11882  -1.03520  -0.93179  -0.86207
  Beta  occ. eigenvalues --   -0.84003  -0.83469  -0.80243  -0.79438  -0.70527
  Beta  occ. eigenvalues --   -0.69280  -0.65966  -0.65244  -0.64593  -0.64101
  Beta  occ. eigenvalues --   -0.63240  -0.60243  -0.59575  -0.57615  -0.57332
  Beta  occ. eigenvalues --   -0.57116  -0.55388  -0.53153  -0.52366  -0.51388
  Beta  occ. eigenvalues --   -0.51103  -0.49309  -0.48200  -0.46729  -0.45917
  Beta  occ. eigenvalues --   -0.45695  -0.45038  -0.44024  -0.43094  -0.41190
  Beta  occ. eigenvalues --   -0.39913  -0.39389  -0.39033  -0.37860  -0.37361
  Beta  occ. eigenvalues --   -0.36771  -0.35098
  Beta virt. eigenvalues --   -0.03857   0.00906   0.04406   0.05344   0.05724
  Beta virt. eigenvalues --    0.06587   0.07048   0.07327   0.07862   0.07936
  Beta virt. eigenvalues --    0.08500   0.09224   0.09436   0.09792   0.09950

 Mulliken charges and spin densities:
               1          2
     1  C    0.067394   0.033159
     2  C    0.009356  -0.030987
     3  C   -0.177783   0.077054
     4  C   -0.375988   0.042576
     5  H    0.163424   0.004883
     6  H    0.160304  -0.000838
     7  C   -0.278800   0.004120
     8  H    0.143128   0.002241
     9  H    0.172500   0.001194
    10  C   -0.214331   0.972090
    11  H    0.166415  -0.025948
    12  C   -0.110905  -0.055681
    13  H    0.157262  -0.000024
    14  H    0.167204  -0.000361
    15  H    0.162351   0.000659
    16  N   -0.158068   0.594009
    17  N   -0.095446   0.226480
    18  C    0.494804   0.004382
    19  C    0.322294   0.021098
    20  O   -0.415299   0.048391
    21  O   -0.430374   0.040696
    22  O   -0.198562   0.018254
    23  O   -0.219802   0.014744
    24  C   -0.254055   0.004239
    25  H    0.159937   0.001413
    26  H    0.169638   0.000494
    27  H    0.161361   0.000330
    28  C   -0.253266  -0.000307
    29  H    0.162971  -0.000033
    30  H    0.170636   0.000784
    31  H    0.171701   0.000889
 Sum of Mulliken charges =   0.00000   2.00000

 Dipole moment (field-independent basis, Debye):
    X=              1.6649    Y=              3.8796    Z=             -4.6090  Tot=              6.2503
 Quadrupole moment (field-independent basis, Debye-Ang):
   XX=            -83.2996   YY=           -100.4497   ZZ=           -102.0902
   XY=              1.8106   XZ=              5.8637   YZ=             10.1603

  Exact polarizability: 199.852   6.406 167.791  -6.270  -7.646 148.759
 Approx polarizability: 172.501   2.948 156.416  -8.367  -9.082 157.076

                      1                      2                      3
                      A                      A                      A
 Frequencies --     19.8289                59.4691                64.4162
 Red. masses --      4.1360                 3.7866                 4.3306
 Frc consts  --      0.0010                 0.0079                 0.0106
 IR Inten    --      0.7152                 3.0091                 0.6622

                      4                      5                      6
                      A                      A                      A
 Frequencies --     88.0708               103.0603               120.4331
 Red. masses --      3.5057                 3.2255                 3.8393
 Frc consts  --      0.0160                 0.0202                 0.0328
 IR Inten    --      4.5289                 1.3946                 0.7357

                      7                      8                      9
                      A                      A                      A
 Frequencies --    131.9456               144.8893               153.9986
 Red. masses --      1.6541                 1.7278                 1.6537
 Frc consts  --      0.0170                 0.0214                 0.0231
 IR Inten    --      1.3716                 0.4658                 2.0970

                     10                     11                     12
                      A                      A                      A
 Frequencies --    180.6547               210.1518               236.5120
 Red. masses --      4.2030                 4.8307                 3.9848
 Frc consts  --      0.0808                 0.1257                 0.1313
 IR Inten    --      4.2611                 1.3034                 5.0025

                     13                     14                     15
                      A                      A                      A
 Frequencies --    296.2805               306.7133               318.6217
 Red. masses --      1.2254                 3.7731                 5.0067
 Frc consts  --      0.0634                 0.2091                 0.2995
 IR Inten    --     25.4428                15.6772                17.5799

                     16                     17                     18
                      A                      A                      A
 Frequencies --    343.3287               357.5168               417.6488
 Red. masses --      5.8911                 6.1681                 6.1790
 Frc consts  --      0.4091                 0.4645                 0.6350
 IR Inten    --     15.5183                 0.8181                 0.4240

                     19                     20                     21
                      A                      A                      A
 Frequencies --    461.2953               472.8623               600.9980
 Red. masses --      6.4566                 2.4531                 5.4046
 Frc consts  --      0.8095                 0.3232                 1.1502
 IR Inten    --      4.5020                 1.5967                20.8052

                     22                     23                     24
                      A                      A                      A
 Frequencies --    613.0698               674.0076               689.1709
 Red. masses --      6.3737                 6.4776                 5.2322
 Frc consts  --      1.4114                 1.7338                 1.4642
 IR Inten    --     13.7537                 1.0873                 0.5698

                     25                     26                     27
                      A                      A                      A
 Frequencies --    697.4498               767.9343               784.0945
 Red. masses --      6.1165                 6.3517                 7.1668
 Frc consts  --      1.7530                 2.2069                 2.5960
 IR Inten    --      3.0013                 6.2291                15.6112

                     28                     29                     30
                      A                      A                      A
 Frequencies --    796.7559               805.0387               824.4211
 Red. masses --      2.4092                 3.8707                 6.3752
 Frc consts  --      0.9011                 1.4780                 2.5529
 IR Inten    --     34.1773                 6.7570                59.5317

                     31                     32                     33
                      A                      A                      A
 Frequencies --    850.1735               882.8785               897.5591
 Red. masses --      2.1581                 4.1890                 2.6262
 Frc consts  --      0.9191                 1.9238                 1.2465
 IR Inten    --     15.5263                43.6616                26.9794

                     34                     35                     36
                      A                      A                      A
 Frequencies --    910.9364               928.3924               940.6381
 Red. masses --      2.1571                 2.5239                 3.2246
 Frc consts  --      1.0546                 1.2817                 1.6810
 IR Inten    --      1.2308                 0.4773                 4.6331

                     37                     38                     39
                      A                      A                      A
 Frequencies --    962.5095               989.2618              1002.6429
 Red. masses --      2.0421                 2.0227                 1.4502
 Frc consts  --      1.1146                 1.1663                 0.8590
 IR Inten    --      0.9064                 9.4633                 0.4715

                     40                     41                     42
                      A                      A                      A
 Frequencies --   1014.0836              1036.4873              1050.1000
 Red. masses --      2.7181                 2.4381                 2.1887
 Frc consts  --      1.6469                 1.5432                 1.4220
 IR Inten    --      0.2188                25.6557                16.4835

                     43                     44                     45
                      A                      A                      A
 Frequencies --   1059.2685              1072.9940              1104.3627
 Red. masses --      1.6637                 1.3494                 2.3551
 Frc consts  --      1.0999                 0.9153                 1.6923
 IR Inten    --      1.9011                 7.6597                14.8337

                     46                     47                     48
                      A                      A                      A
 Frequencies --   1116.5212              1154.4872              1163.2265
 Red. masses --      2.2917                 3.0236                 1.2716
 Frc consts  --      1.6832                 2.3744                 1.0138
 IR Inten    --     93.3725                21.8218                 2.8259

                     49                     50                     51
                      A                      A                      A
 Frequencies --   1180.6096              1189.6178              1194.0318
 Red. masses --      1.2874                 1.2819                 1.7082
 Frc consts  --      1.0573                 1.0689                 1.4349
 IR Inten    --      2.0933                 1.6089                 1.0224

                     52                     53                     54
                      A                      A                      A
 Frequencies --   1220.2309              1224.4977              1227.9466
 Red. masses --      1.6360                 2.3183                 3.1316
 Frc consts  --      1.4352                 2.0480                 2.7821
 IR Inten    --     11.7495               364.2968               451.4089

                     55                     56                     57
                      A                      A                      A
 Frequencies --   1259.9348              1272.9605              1276.4704
 Red. masses --      1.5321                 1.5997                 1.5501
 Frc consts  --      1.4329                 1.5273                 1.4881
 IR Inten    --      2.8860                72.0921                 0.9385

                     58                     59                     60
                      A                      A                      A
 Frequencies --   1298.2280              1308.5610              1334.7963
 Red. masses --      3.5888                 2.3322                 1.7795
 Frc consts  --      3.5637                 2.3529                 1.8680
 IR Inten    --    757.5573                42.3101                91.4912

                     61                     62                     63
                      A                      A                      A
 Frequencies --   1348.7706              1370.7422              1387.5795
 Red. masses --      1.9412                 1.8133                 2.4112
 Frc consts  --      2.0807                 2.0074                 2.7352
 IR Inten    --      5.8218                38.4780                 6.0765

                     64                     65                     66
                      A                      A                      A
 Frequencies --   1468.2409              1479.4262              1485.9094
 Red. masses --      1.6015                 1.1632                 1.0431
 Frc consts  --      2.0341                 1.4999                 1.3569
 IR Inten    --     16.7765                62.7707                 9.6464

                     67                     68                     69
                      A                      A                      A
 Frequencies --   1486.5145              1489.9755              1495.8533
 Red. masses --      1.0484                 1.2167                 1.1947
 Frc consts  --      1.3649                 1.5914                 1.5750
 IR Inten    --     12.2596                48.8451                24.0611

                     70                     71                     72
                      A                      A                      A
 Frequencies --   1497.8587              1499.7215              1798.8682
 Red. masses --      1.5060                 1.1947                12.0530
 Frc consts  --      1.9907                 1.5832                22.9797
 IR Inten    --     16.7709                 1.8619               506.6709

                     73                     74                     75
                      A                      A                      A
 Frequencies --   1845.9712              3071.3626              3081.5316
 Red. masses --     12.1062                 1.0310                 1.0308
 Frc consts  --     24.3058                 5.7302                 5.7669
 IR Inten    --    468.3161                36.8945                35.2193

                     76                     77                     78
                      A                      A                      A
 Frequencies --   3083.7442              3138.1897              3149.4081
 Red. masses --      1.0605                 1.1060                 1.1073
 Frc consts  --      5.9417                 6.4173                 6.4709
 IR Inten    --     28.9782                21.5557                21.2693

                     79                     80                     81
                      A                      A                      A
 Frequencies --   3155.0281              3164.5820              3183.2885
 Red. masses --      1.0870                 1.1079                 1.1059
 Frc consts  --      6.3750                 6.5374                 6.6025
 IR Inten    --      5.5263                14.1975                11.8353

                     82                     83                     84
                      A                      A                      A
 Frequencies --   3193.0126              3201.0607              3240.4620
 Red. masses --      1.1065                 1.0899                 1.0927
 Frc consts  --      6.6466                 6.5799                 6.7604
 IR Inten    --      9.9827                14.2894                 1.8289

                     85                     86                     87
                      A                      A                      A
 Frequencies --   3245.2442              3257.0363              3273.7704
 Red. masses --      1.0909                 1.0966                 1.0942
 Frc consts  --      6.7691                 6.8540                 6.9092
 IR Inten    --     10.3744                 7.9326                 3.7100

 - Thermochemistry -
 -------------------
 Temperature   298.150 Kelvin.  Pressure   1.00000 Atm.
 Atom     1 has atomic number  6 and mass  12.00000

 Molecular mass:   238.09536 amu.
 Principal axes and moments of inertia in atomic units:
                           1         2         3
     Eigenvalues --  2991.588673846.431515679.05594
           X            0.99988   0.01219   0.00945
           Y           -0.01240   0.99966   0.02286
           Z           -0.00916  -0.02297   0.99969
 This molecule is an asymmetric top.
 Rotational symmetry number  1.
 Warning -- assumption of classical behavior for rotation
           may cause significant error
 Rotational temperatures (Kelvin)      0.02895     0.02252     0.01525
 Rotational constants (GHZ):           0.60327     0.46920     0.31779
 Zero-point vibrational energy     651714.8 (Joules/Mol)
                                  155.76357 (Kcal/Mol)
 Warning -- explicit consideration of  22 degrees of freedom as
           vibrations may cause significant error
 Vibrational temperatures:     28.53    85.56    92.68   126.71   148.28
          (Kelvin)            173.28   189.84   208.46   221.57   259.92
                              302.36   340.29   426.28   441.29   458.43
                              493.97   514.39   600.90   663.70   680.34
                              864.70   882.07   969.75   991.56  1003.47
                             1104.88  1128.14  1146.35  1158.27  1186.16
                             1223.21  1270.26  1291.39  1310.63  1335.75
                             1353.37  1384.83  1423.33  1442.58  1459.04
                             1491.27  1510.86  1524.05  1543.80  1588.93
                             1606.42  1661.05  1673.62  1698.63  1711.59
                             1717.94  1755.64  1761.78  1766.74  1812.76
                             1831.50  1836.55  1867.86  1882.73  1920.47
                             1940.58  1972.19  1996.41  2112.47  2128.56
                             2137.89  2138.76  2143.74  2152.20  2155.08
                             2157.76  2588.17  2655.94  4419.00  4433.63
                             4436.81  4515.15  4531.29  4539.38  4553.12
                             4580.04  4594.03  4605.61  4662.30  4669.18
                             4686.14  4710.22

 Zero-point correction=                           0.248225 (Hartree/Particle)
 Thermal correction to Energy=                    0.264100
 Thermal correction to Enthalpy=                  0.265045
 Thermal correction to Gibbs Free Energy=         0.202699
 Sum of electronic and zero-point Energies=           -837.674698
 Sum of electronic and thermal Energies=              -837.658822
 Sum of electronic and thermal Enthalpies=            -837.657878
 Sum of electronic and thermal Free Energies=         -837.720224

                     E (Thermal)             CV                S
                      KCal/Mol        Cal/Mol-Kelvin    Cal/Mol-Kelvin
 Total                  165.725             59.012            131.218
 Electronic               0.000              0.000              2.183
 Translational            0.889              2.981             42.304
 Rotational               0.889              2.981             32.547
 Vibrational            163.948             53.050             54.184
 Vibration     1          0.593              1.986              6.651
 Vibration     2          0.597              1.974              4.475
 Vibration     3          0.597              1.971              4.317
 Vibration     4          0.601              1.958              3.702
 Vibration     5          0.605              1.947              3.396
 Vibration     6          0.609              1.932              3.093
 Vibration     7          0.612              1.921              2.917
 Vibration     8          0.616              1.908              2.738
 Vibration     9          0.620              1.898              2.622
 Vibration    10          0.630              1.866              2.322
 Vibration    11          0.642              1.825              2.042
 Vibration    12          0.655              1.785              1.829
 Vibration    13          0.690              1.681              1.438
 Vibration    14          0.697              1.661              1.380
 Vibration    15          0.705              1.638              1.317
 Vibration    16          0.722              1.589              1.197
 Vibration    17          0.733              1.560              1.133
 Vibration    18          0.781              1.432              0.900
 Vibration    19          0.819              1.336              0.762
 Vibration    20          0.830              1.310              0.730
 Vibration    21          0.959              1.030              0.448
 Vibration    22          0.972              1.004              0.428

 Normal termination of Gaussian 09 at Sat Feb 12 03:34:45 2022.
