 Gaussian 09, Revision D.01,
 Gaussian 09:  ES64L-G09RevD.01 24-Apr-2013

 --------------------------------------------
 #n wB97XD/Gen scrf(smd,solvent=toluene) freq
 --------------------------------------------

 ------------------------------------------
 quadricyclane cycloaddition toluene - freq
 ------------------------------------------
 Symbolic Z-matrix:
 Charge =  0 Multiplicity = 1

                         Standard orientation:
 ---------------------------------------------------------------------
 Center     Atomic      Atomic             Coordinates (Angstroms)
 Number     Number       Type             X           Y           Z
 ---------------------------------------------------------------------
      1          6           0        0.770515   -0.704497    0.754440
      2          6           0        1.144894    0.547254    0.000000
      3          6           0       -1.144886    0.547278    0.000000
      4          6           0       -0.770535   -0.704481    0.754440
      5          1           0        1.421132   -1.225623    1.439570
      6          1           0       -1.421158   -1.225595    1.439560
      7          6           0        0.000018    1.529411    0.000000
      8          1           0        0.000023    2.164441   -0.889010
      9          1           0        0.000023    2.164441    0.889010
     10          6           0        0.770515   -0.704497   -0.754440
     11          1           0        1.421132   -1.225623   -1.439560
     12          6           0       -0.770525   -0.704481   -0.754440
     13          1           0       -1.421148   -1.225595   -1.439560
     14          1           0        2.176992    0.868799    0.000000
     15          1           0       -2.176968    0.868842    0.000000
 ---------------------------------------------------------------------

 SCF Done:  E(RwB97XD) =  -271.471471348     A.U. after   12 cycles

 The electronic state is 1-A.
 Alpha  occ. eigenvalues --  -10.28355 -10.28349 -10.28319 -10.28312 -10.28308
 Alpha  occ. eigenvalues --  -10.28294 -10.27279  -1.04658  -0.88031  -0.82948
 Alpha  occ. eigenvalues --   -0.72970  -0.65773  -0.64144  -0.62656  -0.60647
 Alpha  occ. eigenvalues --   -0.52195  -0.51779  -0.51472  -0.47532  -0.42974
 Alpha  occ. eigenvalues --   -0.42118  -0.39206  -0.35833  -0.34755  -0.29987
 Alpha virt. eigenvalues --    0.04958   0.06307   0.06620   0.06772   0.09483
 Alpha virt. eigenvalues --    0.09554   0.09821   0.10113   0.10318   0.12892
 Alpha virt. eigenvalues --    0.13253   0.13275   0.13475   0.13910   0.14015

 Mulliken charges:
               1
     1  C   -0.096547
     2  C   -0.258924
     3  C   -0.258925
     4  C   -0.096545
     5  H    0.140291
     6  H    0.140291
     7  C   -0.166126
     8  H    0.114899
     9  H    0.114899
    10  C   -0.096546
    11  H    0.140290
    12  C   -0.096551
    13  H    0.140289
    14  H    0.139603
    15  H    0.139603
 Sum of Mulliken charges =   0.00000

 Dipole moment (field-independent basis, Debye):
    X=              0.0000    Y=              0.0012    Z=              0.0000  Tot=              0.0012
 Quadrupole moment (field-independent basis, Debye-Ang):
   XX=            -38.9771   YY=            -41.6506   ZZ=            -41.7947
   XY=              0.0000   XZ=              0.0000   YZ=              0.0000

  Exact polarizability:  80.089   0.000  83.280   0.000   0.000  76.066
 Approx polarizability:  74.289   0.000  78.766   0.000   0.000  78.196

                      1                      2                      3
                      A                      A                      A
 Frequencies --    378.8547               542.4236               685.0540
 Red. masses --      1.7895                 2.7952                 3.0564
 Frc consts  --      0.1513                 0.4846                 0.8451
 IR Inten    --      1.1801                 0.0000                 0.0011

                      4                      5                      6
                      A                      A                      A
 Frequencies --    714.0861               731.5113               745.3966
 Red. masses --      1.8719                 3.3440                 4.7008
 Frc consts  --      0.5624                 1.0543                 1.5389
 IR Inten    --      1.8625                 0.0000                 0.9273

                      7                      8                      9
                      A                      A                      A
 Frequencies --    788.0646               810.8081               843.5052
 Red. masses --      1.9564                 1.4247                 1.5946
 Frc consts  --      0.7159                 0.5518                 0.6685
 IR Inten    --     65.2586                38.9765                 0.0000

                     10                     11                     12
                      A                      A                      A
 Frequencies --    877.2574               926.3666               927.0919
 Red. masses --      1.9066                 1.9182                 1.4256
 Frc consts  --      0.8645                 0.9699                 0.7219
 IR Inten    --      0.9640                 5.5773                 6.1581

                     13                     14                     15
                      A                      A                      A
 Frequencies --    944.7600               975.5154               988.6403
 Red. masses --      1.7464                 2.4605                 2.5244
 Frc consts  --      0.9184                 1.3796                 1.4537
 IR Inten    --     10.8407                 1.7338                 0.9246

                     16                     17                     18
                      A                      A                      A
 Frequencies --   1015.2922              1024.1405              1036.2470
 Red. masses --      1.6230                 1.4974                 1.2547
 Frc consts  --      0.9857                 0.9254                 0.7938
 IR Inten    --      0.1045                 0.0830                 0.0000

                     19                     20                     21
                      A                      A                      A
 Frequencies --   1048.3563              1062.8610              1082.1360
 Red. masses --      1.1855                 2.2988                 1.7507
 Frc consts  --      0.7676                 1.5301                 1.2079
 IR Inten    --      0.3063                 0.0000                 0.1332

                     22                     23                     24
                      A                      A                      A
 Frequencies --   1110.0626              1201.4360              1228.3300
 Red. masses --      2.2908                 1.2133                 1.3611
 Frc consts  --      1.6631                 1.0318                 1.2099
 IR Inten    --      2.7807                 0.0000                 0.0000

                     25                     26                     27
                      A                      A                      A
 Frequencies --   1250.7995              1289.0132              1302.6112
 Red. masses --      1.4856                 1.8075                 2.8968
 Frc consts  --      1.3694                 1.7695                 2.8960
 IR Inten    --      0.0306                22.0704                 2.8982

                     28                     29                     30
                      A                      A                      A
 Frequencies --   1309.6912              1377.0505              1408.1004
 Red. masses --      2.1128                 2.5930                 2.8338
 Frc consts  --      2.1353                 2.8970                 3.3105
 IR Inten    --      4.5513                 0.5883                 0.0308

                     31                     32                     33
                      A                      A                      A
 Frequencies --   1477.8894              3060.9670              3107.1074
 Red. masses --      1.1228                 1.0585                 1.1063
 Frc consts  --      1.4449                 5.8435                 6.2928
 IR Inten    --      1.7348                59.7552                30.5758

                     34                     35                     36
                      A                      A                      A
 Frequencies --   3213.6073              3216.7657              3234.0774
 Red. masses --      1.0909                 1.0923                 1.0897
 Frc consts  --      6.6380                 6.6595                 6.7150
 IR Inten    --     16.6506                 7.2164                 0.0002

                     37                     38                     39
                      A                      A                      A
 Frequencies --   3243.3289              3244.7089              3254.7609
 Red. masses --      1.0926                 1.0964                 1.1037
 Frc consts  --      6.7717                 6.8008                 6.8889
 IR Inten    --     22.7018                24.2404                 6.5467

 - Thermochemistry -
 -------------------
 Temperature   298.150 Kelvin.  Pressure   1.00000 Atm.
 Atom     1 has atomic number  6 and mass  12.00000

 Molecular mass:    92.06260 amu.
 Principal axes and moments of inertia in atomic units:
                           1         2         3
     Eigenvalues --   404.79142 410.38228 549.00154
           X            1.00000   0.00000   0.00000
           Y            0.00000   1.00000   0.00000
           Z            0.00000   0.00000   1.00000
 This molecule is an asymmetric top.
 Rotational symmetry number  1.
 Rotational temperatures (Kelvin)      0.21397     0.21106     0.15777
 Rotational constants (GHZ):           4.45845     4.39771     3.28732
 Zero-point vibrational energy     339013.8 (Joules/Mol)
                                   81.02623 (Kcal/Mol)
 Warning -- explicit consideration of   2 degrees of freedom as
           vibrations may cause significant error
 Vibrational temperatures:    545.09   780.43   985.64  1027.41  1052.48
          (Kelvin)           1072.46  1133.85  1166.57  1213.61  1262.18
                             1332.83  1333.88  1359.30  1403.55  1422.43
                             1460.78  1473.51  1490.93  1508.35  1529.22
                             1556.95  1597.13  1728.60  1767.29  1799.62
                             1854.60  1874.16  1884.35  1981.27  2025.94
                             2126.35  4404.04  4470.43  4623.66  4628.20
                             4653.11  4666.42  4668.41  4682.87

 Zero-point correction=                           0.129124 (Hartree/Particle)
 Thermal correction to Energy=                    0.133718
 Thermal correction to Enthalpy=                  0.134663
 Thermal correction to Gibbs Free Energy=         0.101253
 Sum of electronic and zero-point Energies=           -271.342348
 Sum of electronic and thermal Energies=              -271.337753
 Sum of electronic and thermal Enthalpies=            -271.336809
 Sum of electronic and thermal Free Energies=         -271.370219

                     E (Thermal)             CV                S
                      KCal/Mol        Cal/Mol-Kelvin    Cal/Mol-Kelvin
 Total                   83.910             19.958             70.317
 Electronic               0.000              0.000              0.000
 Translational            0.889              2.981             39.472
 Rotational               0.889              2.981             26.014
 Vibrational             82.132             13.997              4.831
 Vibration     1          0.749              1.515              1.044
 Vibration     2          0.898              1.156              0.560

 Optimization completed.
    -- Stationary point found.
 Normal termination of Gaussian 09 at Wed Feb  9 15:24:22 2022.
