 Gaussian 09, Revision D.01,
 Gaussian 09:  ES64L-G09RevD.01 24-Apr-2013

 -------------------------------------------
 #n wB97XD/Gen scrf(smd,solvent=toluene) opt
 -------------------------------------------

 -----------------------------------------
 Quadricyclane cycloaddition toluene - opt
 -----------------------------------------
 Symbolic Z-matrix:
 Charge =  0 Multiplicity = 1

 SCF Done:  E(RwB97XD) =  -271.471375771     A.U. after   12 cycles
 SCF Done:  E(RwB97XD) =  -271.471471348     A.U. after   10 cycles
 Optimization completed.
    -- Stationary point found.

                         Standard orientation:
 ---------------------------------------------------------------------
 Center     Atomic      Atomic             Coordinates (Angstroms)
 Number     Number       Type             X           Y           Z
 ---------------------------------------------------------------------
      1          6           0        0.770535   -0.704481    0.754441
      2          6           0        1.144881    0.547282    0.000000
      3          6           0       -1.144896    0.547252    0.000001
      4          6           0       -0.770516   -0.704500    0.754441
      5          1           0        1.421156   -1.225593    1.439567
      6          1           0       -1.421126   -1.225632    1.439563
      7          6           0       -0.000021    1.529414    0.000000
      8          1           0       -0.000031    2.164438   -0.889014
      9          1           0       -0.000028    2.164438    0.889014
     10          6           0        0.770535   -0.704479   -0.754441
     11          1           0        1.421159   -1.225592   -1.439565
     12          6           0       -0.770515   -0.704501   -0.754441
     13          1           0       -1.421123   -1.225633   -1.439565
     14          1           0        2.176968    0.868852    0.000003
     15          1           0       -2.176992    0.868794   -0.000003
 ---------------------------------------------------------------------

 The electronic state is 1-A.
 Alpha  occ. eigenvalues --  -10.28355 -10.28349 -10.28319 -10.28313 -10.28308
 Alpha  occ. eigenvalues --  -10.28294 -10.27279  -1.04658  -0.88031  -0.82948
 Alpha  occ. eigenvalues --   -0.72969  -0.65773  -0.64144  -0.62656  -0.60647
 Alpha  occ. eigenvalues --   -0.52195  -0.51779  -0.51472  -0.47532  -0.42974
 Alpha  occ. eigenvalues --   -0.42118  -0.39206  -0.35833  -0.34755  -0.29987
 Alpha virt. eigenvalues --    0.04958   0.06307   0.06620   0.06772   0.09483
 Alpha virt. eigenvalues --    0.09554   0.09821   0.10113   0.10318   0.12892
 Alpha virt. eigenvalues --    0.13253   0.13275   0.13475   0.13910   0.14015

 Mulliken charges:
               1
     1  C   -0.096548
     2  C   -0.258924
     3  C   -0.258924
     4  C   -0.096547
     5  H    0.140291
     6  H    0.140291
     7  C   -0.166126
     8  H    0.114899
     9  H    0.114899
    10  C   -0.096547
    11  H    0.140291
    12  C   -0.096548
    13  H    0.140291
    14  H    0.139602
    15  H    0.139602
 Sum of Mulliken charges =   0.00000

 Dipole moment (field-independent basis, Debye):
    X=              0.0000    Y=              0.0012    Z=              0.0000  Tot=              0.0012
 Quadrupole moment (field-independent basis, Debye-Ang):
   XX=            -38.9772   YY=            -41.6506   ZZ=            -41.7946
   XY=              0.0000   XZ=              0.0000   YZ=              0.0000

 Normal termination of Gaussian 09 at Wed Feb  9 13:06:49 2022.
