 Gaussian 09, Revision D.01,
 Gaussian 09:  ES64L-G09RevD.01 24-Apr-2013

 -------------------------------------------------------------------
 #n wB97XD/Gen scrf(smd,solvent=toluene) opt=(calcfc,ts,noeigentest)
 -------------------------------------------------------------------

 ------------------------------
 ts cycloaddition toluene - opt
 ------------------------------
 Symbolic Z-matrix:
 Charge =  0 Multiplicity = 1

 SCF Done:  E(RwB97XD) =  -837.864589532     A.U. after   18 cycles

  Exact polarizability:   0.000   0.000   0.000   0.000   0.000   0.000
 Approx polarizability: 201.176  37.062 226.252 -26.347 -34.484 183.555

 SCF Done:  E(RwB97XD) =  -837.865207268     A.U. after   14 cycles
 SCF Done:  E(RwB97XD) =  -837.865213994     A.U. after   13 cycles
 SCF Done:  E(RwB97XD) =  -837.863919164     A.U. after   16 cycles
 SCF Done:  E(RwB97XD) =  -837.865015099     A.U. after   15 cycles
 SCF Done:  E(RwB97XD) =  -837.864947815     A.U. after   15 cycles
 SCF Done:  E(RwB97XD) =  -837.865229938     A.U. after   14 cycles
 SCF Done:  E(RwB97XD) =  -837.865237339     A.U. after   12 cycles
 SCF Done:  E(RwB97XD) =  -837.865237377     A.U. after   11 cycles
 SCF Done:  E(RwB97XD) =  -837.865237501     A.U. after    8 cycles
 SCF Done:  E(RwB97XD) =  -837.865238019     A.U. after    8 cycles
 Optimization completed.
    -- Stationary point found.

                         Standard orientation:
 ---------------------------------------------------------------------
 Center     Atomic      Atomic             Coordinates (Angstroms)
 Number     Number       Type             X           Y           Z
 ---------------------------------------------------------------------
      1          6           0        0.523847    0.792410   -0.841765
      2          6           0        1.686610    1.386688    0.004395
      3          6           0       -0.212612    2.364185    0.835086
      4          6           0       -0.648950    1.655686   -0.412963
      5          1           0        0.657743    0.458091   -1.857290
      6          1           0       -1.671312    1.485657   -0.705525
      7          6           0        1.063575    1.733513    1.346357
      8          1           0        1.689802    2.434191    1.899857
      9          1           0        0.865138    0.853472    1.955709
     10          6           0        1.335857    2.422849   -0.937213
     11          1           0        1.830433    2.610932   -1.877432
     12          6           0        0.058937    3.019136   -0.485071
     13          1           0       -0.383836    3.924860   -0.863401
     14          1           0        2.636794    0.877970   -0.077301
     15          1           0       -0.966952    2.763758    1.494091
     16          7           0       -0.780342   -0.780328    0.868188
     17          7           0        0.032893   -0.953283   -0.121563
     18          6           0       -2.125428   -0.767249    0.504595
     19          6           0        1.294373   -1.475063    0.276049
     20          8           0        1.589978   -1.889072    1.361403
     21          8           0       -2.995513   -0.544894    1.313338
     22          8           0        2.089286   -1.545647   -0.796803
     23          8           0       -2.384148   -1.058245   -0.783375
     24          6           0       -3.759169   -1.096682   -1.137699
     25          1           0       -3.786295   -1.341138   -2.197982
     26          1           0       -4.290334   -1.860074   -0.567832
     27          1           0       -4.239821   -0.131540   -0.967503
     28          6           0        3.358130   -2.154793   -0.582346
     29          1           0        3.917700   -1.639026    0.199164
     30          1           0        3.240112   -3.202259   -0.303140
     31          1           0        3.885134   -2.080836   -1.530855
 ---------------------------------------------------------------------

 The electronic state is 1-A.
 Alpha  occ. eigenvalues --  -19.29841 -19.28072 -19.23402 -19.21031 -14.49090
 Alpha  occ. eigenvalues --  -14.44038 -10.42918 -10.40788 -10.35229 -10.34416
 Alpha  occ. eigenvalues --  -10.33479 -10.33259 -10.32290 -10.32181 -10.32029
 Alpha  occ. eigenvalues --  -10.31181 -10.29299  -1.22453  -1.20303  -1.13051
 Alpha  occ. eigenvalues --   -1.10363  -1.09640  -1.07736  -0.91099  -0.88753
 Alpha  occ. eigenvalues --   -0.85152  -0.82079  -0.79969  -0.78390  -0.69192
 Alpha  occ. eigenvalues --   -0.67803  -0.66760  -0.66291  -0.65030  -0.63933
 Alpha  occ. eigenvalues --   -0.62305  -0.59049  -0.58254  -0.56954  -0.56251
 Alpha  occ. eigenvalues --   -0.55471  -0.54712  -0.54092  -0.52582  -0.50598
 Alpha  occ. eigenvalues --   -0.50349  -0.50064  -0.48805  -0.47866  -0.47474
 Alpha  occ. eigenvalues --   -0.45686  -0.44860  -0.44263  -0.43424  -0.42946
 Alpha  occ. eigenvalues --   -0.39526  -0.39465  -0.38368  -0.37626  -0.37145
 Alpha  occ. eigenvalues --   -0.35566  -0.31592  -0.26644
 Alpha virt. eigenvalues --   -0.03926   0.03843   0.05216   0.05503   0.05940
 Alpha virt. eigenvalues --    0.06937   0.07364   0.07400   0.07852   0.08089
 Alpha virt. eigenvalues --    0.08865   0.09019   0.09604   0.09897   0.10040

 Mulliken charges:
               1
     1  C   -0.192327
     2  C   -0.123096
     3  C   -0.122716
     4  C   -0.288842
     5  H    0.203405
     6  H    0.184523
     7  C   -0.283353
     8  H    0.144761
     9  H    0.197925
    10  C    0.007329
    11  H    0.199574
    12  C   -0.067576
    13  H    0.175878
    14  H    0.172486
    15  H    0.172429
    16  N   -0.163151
    17  N   -0.201417
    18  C    0.439957
    19  C    0.316483
    20  O   -0.368378
    21  O   -0.462529
    22  O   -0.229283
    23  O   -0.188777
    24  C   -0.238334
    25  H    0.152775
    26  H    0.164291
    27  H    0.150033
    28  C   -0.242175
    29  H    0.159412
    30  H    0.171340
    31  H    0.159349
 Sum of Mulliken charges =   0.00000

 Dipole moment (field-independent basis, Debye):
    X=              4.4732    Y=              5.8522    Z=             -6.3494  Tot=              9.7249
 Quadrupole moment (field-independent basis, Debye-Ang):
   XX=            -88.7005   YY=            -87.3164   ZZ=           -104.0256
   XY=             -0.6887   XZ=              4.8956   YZ=              4.0648

 Normal termination of Gaussian 09 at Wed Feb  9 22:31:18 2022.
