 Gaussian 09, Revision D.01,
 Gaussian 09:  ES64L-G09RevD.01 24-Apr-2013

 --------------------------------------------
 #n wB97XD/Gen scrf(smd,solvent=toluene) freq
 --------------------------------------------

 -------------------------
 ts_claisen toluene - freq
 -------------------------
 Symbolic Z-matrix:
 Charge =  0 Multiplicity = 1

                         Standard orientation:
 ---------------------------------------------------------------------
 Center     Atomic      Atomic             Coordinates (Angstroms)
 Number     Number       Type             X           Y           Z
 ---------------------------------------------------------------------
      1          6           0        0.523850    0.792410   -0.841761
      2          6           0        1.686610    1.386689    0.004389
      3          6           0       -0.212610    2.364180    0.835089
      4          6           0       -0.648950    1.655690   -0.412961
      5          1           0        0.657740    0.458089   -1.857291
      6          1           0       -1.671310    1.485660   -0.705521
      7          6           0        1.063570    1.733509    1.346359
      8          1           0        1.689800    2.434189    1.899859
      9          1           0        0.865140    0.853469    1.955709
     10          6           0        1.335860    2.422849   -0.937211
     11          1           0        1.830430    2.610929   -1.877431
     12          6           0        0.058940    3.019140   -0.485071
     13          1           0       -0.383839    3.924860   -0.863401
     14          1           0        2.636790    0.877969   -0.077301
     15          1           0       -0.966950    2.763760    1.494089
     16          7           0       -0.780341   -0.780330    0.868189
     17          7           0        0.032889   -0.953280   -0.121561
     18          6           0       -2.125431   -0.767250    0.504599
     19          6           0        1.294369   -1.475061    0.276049
     20          8           0        1.589979   -1.889071    1.361399
     21          8           0       -2.995511   -0.544889    1.313339
     22          8           0        2.089289   -1.545651   -0.796801
     23          8           0       -2.384151   -1.058250   -0.783381
     24          6           0       -3.759171   -1.096679   -1.137701
     25          1           0       -3.786291   -1.341139   -2.197981
     26          1           0       -4.290331   -1.860069   -0.567831
     27          1           0       -4.239820   -0.131539   -0.967501
     28          6           0        3.358129   -2.154791   -0.582351
     29          1           0        3.917699   -1.639031    0.199159
     30          1           0        3.240109   -3.202261   -0.303141
     31          1           0        3.885129   -2.080841   -1.530861
 ---------------------------------------------------------------------

 SCF Done:  E(RwB97XD) =  -837.865238018     A.U. after   19 cycles

 The electronic state is 1-A.
 Alpha  occ. eigenvalues --  -19.29841 -19.28072 -19.23402 -19.21032 -14.49090
 Alpha  occ. eigenvalues --  -14.44039 -10.42918 -10.40789 -10.35229 -10.34416
 Alpha  occ. eigenvalues --  -10.33479 -10.33259 -10.32289 -10.32181 -10.32029
 Alpha  occ. eigenvalues --  -10.31181 -10.29299  -1.22454  -1.20303  -1.13051
 Alpha  occ. eigenvalues --   -1.10363  -1.09640  -1.07736  -0.91099  -0.88753
 Alpha  occ. eigenvalues --   -0.85152  -0.82079  -0.79969  -0.78390  -0.69192
 Alpha  occ. eigenvalues --   -0.67803  -0.66760  -0.66291  -0.65030  -0.63933
 Alpha  occ. eigenvalues --   -0.62305  -0.59049  -0.58254  -0.56954  -0.56251
 Alpha  occ. eigenvalues --   -0.55471  -0.54712  -0.54092  -0.52582  -0.50598
 Alpha  occ. eigenvalues --   -0.50349  -0.50064  -0.48805  -0.47866  -0.47474
 Alpha  occ. eigenvalues --   -0.45686  -0.44860  -0.44264  -0.43425  -0.42946
 Alpha  occ. eigenvalues --   -0.39526  -0.39465  -0.38368  -0.37626  -0.37145
 Alpha  occ. eigenvalues --   -0.35566  -0.31592  -0.26644
 Alpha virt. eigenvalues --   -0.03926   0.03843   0.05216   0.05503   0.05940
 Alpha virt. eigenvalues --    0.06937   0.07364   0.07400   0.07852   0.08089
 Alpha virt. eigenvalues --    0.08865   0.09019   0.09604   0.09897   0.10040

 Mulliken charges:
               1
     1  C   -0.192330
     2  C   -0.123097
     3  C   -0.122717
     4  C   -0.288835
     5  H    0.203405
     6  H    0.184524
     7  C   -0.283353
     8  H    0.144760
     9  H    0.197926
    10  C    0.007331
    11  H    0.199574
    12  C   -0.067580
    13  H    0.175879
    14  H    0.172486
    15  H    0.172428
    16  N   -0.163150
    17  N   -0.201415
    18  C    0.439952
    19  C    0.316484
    20  O   -0.368376
    21  O   -0.462520
    22  O   -0.229283
    23  O   -0.188779
    24  C   -0.238333
    25  H    0.152775
    26  H    0.164289
    27  H    0.150033
    28  C   -0.242175
    29  H    0.159411
    30  H    0.171338
    31  H    0.159348
 Sum of Mulliken charges =   0.00000

 Dipole moment (field-independent basis, Debye):
    X=              4.4731    Y=              5.8523    Z=             -6.3494  Tot=              9.7248
 Quadrupole moment (field-independent basis, Debye-Ang):
   XX=            -88.7007   YY=            -87.3166   ZZ=           -104.0255
   XY=             -0.6886   XZ=              4.8954   YZ=              4.0646

  Exact polarizability: 218.412  39.374 246.005 -18.992 -28.389 162.737
 Approx polarizability: 200.976  39.423 232.178 -26.860 -36.302 181.996

 ******    1 imaginary frequencies (negative Signs) ******

                      1                      2                      3
                      A                      A                      A
 Frequencies --   -635.4337                49.4476                54.6891
 Red. masses --      9.6287                 4.9448                 4.6370
 Frc consts  --      2.2906                 0.0071                 0.0082
 IR Inten    --   2014.3684                 2.7827                 0.2297

                      4                      5                      6
                      A                      A                      A
 Frequencies --     63.7611                83.5354                95.9003
 Red. masses --      5.7479                 4.8384                 3.6727
 Frc consts  --      0.0138                 0.0199                 0.0199
 IR Inten    --      1.6493                 1.2691                 2.6101

                      7                      8                      9
                      A                      A                      A
 Frequencies --    109.6396               153.9377               159.5009
 Red. masses --      4.1195                 3.8347                 1.3041
 Frc consts  --      0.0292                 0.0535                 0.0195
 IR Inten    --      1.8001                 8.1818                 1.3662

                     10                     11                     12
                      A                      A                      A
 Frequencies --    175.8237               183.6626               196.2226
 Red. masses --      1.6950                 1.7483                 3.8025
 Frc consts  --      0.0309                 0.0347                 0.0863
 IR Inten    --      0.6725                 1.0386                 5.3672

                     13                     14                     15
                      A                      A                      A
 Frequencies --    212.1007               274.0408               294.9729
 Red. masses --      3.5216                 4.6753                 6.1832
 Frc consts  --      0.0933                 0.2069                 0.3170
 IR Inten    --      6.5598                10.6850                11.5282

                     16                     17                     18
                      A                      A                      A
 Frequencies --    333.0942               340.8458               428.0016
 Red. masses --      4.9820                 5.9639                 5.0651
 Frc consts  --      0.3257                 0.4082                 0.5467
 IR Inten    --     16.5381                 6.7054                28.3406

                     19                     20                     21
                      A                      A                      A
 Frequencies --    436.6198               457.4696               539.0186
 Red. masses --      2.1720                 7.3707                 2.9916
 Frc consts  --      0.2440                 0.9088                 0.5121
 IR Inten    --      1.3896                43.0410                28.6650

                     22                     23                     24
                      A                      A                      A
 Frequencies --    612.4534               643.8435               684.4434
 Red. masses --      9.1376                 4.6230                 6.3328
 Frc consts  --      2.0194                 1.1291                 1.7479
 IR Inten    --     15.8134                17.7468                19.4493

                     25                     26                     27
                      A                      A                      A
 Frequencies --    715.7238               746.4250               776.1873
 Red. masses --      6.2712                 3.4965                 7.7115
 Frc consts  --      1.8928                 1.1478                 2.7373
 IR Inten    --     35.8240               117.2986                 9.9461

                     28                     29                     30
                      A                      A                      A
 Frequencies --    794.7053               801.8542               809.7409
 Red. masses --      3.8896                 2.2462                 3.0057
 Frc consts  --      1.4473                 0.8509                 1.1612
 IR Inten    --      9.1261                11.1250                61.5016

                     31                     32                     33
                      A                      A                      A
 Frequencies --    824.7538               831.6628               849.7999
 Red. masses --      2.8426                 2.3185                 1.6428
 Frc consts  --      1.1392                 0.9448                 0.6990
 IR Inten    --     18.2544                 8.8171                 6.9119

                     34                     35                     36
                      A                      A                      A
 Frequencies --    888.1009               915.7172               934.8243
 Red. masses --      2.4916                 5.0873                 1.7907
 Frc consts  --      1.1578                 2.5134                 0.9220
 IR Inten    --    178.9397                11.6700                 8.0496

                     37                     38                     39
                      A                      A                      A
 Frequencies --    948.9778               976.1464               978.2569
 Red. masses --      2.0450                 1.6274                 4.3634
 Frc consts  --      1.0851                 0.9136                 2.4603
 IR Inten    --      6.7133                19.3670                38.7824

                     40                     41                     42
                      A                      A                      A
 Frequencies --    994.8515              1017.5173              1043.5827
 Red. masses --      1.5478                 1.4828                 1.8942
 Frc consts  --      0.9026                 0.9045                 1.2154
 IR Inten    --     32.1198                 9.2971                24.3926

                     43                     44                     45
                      A                      A                      A
 Frequencies --   1055.9188              1071.8097              1078.9643
 Red. masses --      1.5621                 1.2275                 1.6338
 Frc consts  --      1.0262                 0.8308                 1.1207
 IR Inten    --      5.5308                 8.7385                 0.1933

                     46                     47                     48
                      A                      A                      A
 Frequencies --   1087.0525              1091.9177              1118.6107
 Red. masses --      1.2883                 6.8491                 8.1421
 Frc consts  --      0.8969                 4.8113                 6.0027
 IR Inten    --      1.4813                 1.9335               145.1171

                     49                     50                     51
                      A                      A                      A
 Frequencies --   1128.6974              1192.0812              1193.8298
 Red. masses --      1.3667                 1.2831                 1.2797
 Frc consts  --      1.0258                 1.0743                 1.0746
 IR Inten    --     55.2375                 2.0086                 0.5652

                     52                     53                     54
                      A                      A                      A
 Frequencies --   1202.2781              1220.4082              1229.9343
 Red. masses --      1.2118                 1.5565                 1.5343
 Frc consts  --      1.0321                 1.3658                 1.3675
 IR Inten    --     57.6291                68.6886                 8.3139

                     55                     56                     57
                      A                      A                      A
 Frequencies --   1247.0292              1265.5573              1274.8440
 Red. masses --      2.0921                 2.8616                 1.5128
 Frc consts  --      1.9168                 2.7003                 1.4486
 IR Inten    --    549.6109               467.8594                72.5478

                     58                     59                     60
                      A                      A                      A
 Frequencies --   1286.6098              1308.2030              1317.7328
 Red. masses --      5.4287                 2.1975                 1.9670
 Frc consts  --      5.2947                 2.2158                 2.0123
 IR Inten    --   1091.9826                24.1255                59.0961

                     61                     62                     63
                      A                      A                      A
 Frequencies --   1358.5794              1381.8655              1396.7739
 Red. masses --      4.0889                 2.9329                 4.0898
 Frc consts  --      4.4466                 3.2997                 4.7011
 IR Inten    --    139.5680               240.5098               201.6681

                     64                     65                     66
                      A                      A                      A
 Frequencies --   1430.3570              1480.9457              1485.7884
 Red. masses --      2.5636                 1.1517                 1.1287
 Frc consts  --      3.0902                 1.4883                 1.4681
 IR Inten    --     18.8797                43.7438                10.9895

                     67                     68                     69
                      A                      A                      A
 Frequencies --   1486.9184              1492.3016              1493.1245
 Red. masses --      1.0476                 1.0446                 1.0868
 Frc consts  --      1.3647                 1.3705                 1.4275
 IR Inten    --      9.1489                10.9703                27.9829

                     70                     71                     72
                      A                      A                      A
 Frequencies --   1498.5330              1505.3815              1774.7956
 Red. masses --      1.1382                 1.0822                11.8468
 Frc consts  --      1.5060                 1.4449                21.9860
 IR Inten    --     20.2054                17.6734               772.7741

                     73                     74                     75
                      A                      A                      A
 Frequencies --   1814.0478              3062.3065              3070.3863
 Red. masses --     11.9278                 1.0316                 1.0313
 Frc consts  --     23.1264                 5.7000                 5.7282
 IR Inten    --    466.8616                55.5706                38.6034

                     76                     77                     78
                      A                      A                      A
 Frequencies --   3102.7112              3137.7573              3148.2367
 Red. masses --      1.0615                 1.1055                 1.1070
 Frc consts  --      6.0207                 6.4126                 6.4644
 IR Inten    --     24.5821                26.8780                20.4974

                     79                     80                     81
                      A                      A                      A
 Frequencies --   3163.3269              3167.5797              3180.3947
 Red. masses --      1.1057                 1.1060                 1.1060
 Frc consts  --      6.5187                 6.5382                 6.5913
 IR Inten    --      2.1847                17.4745                12.6079

                     82                     83                     84
                      A                      A                      A
 Frequencies --   3228.3280              3253.9840              3262.7731
 Red. masses --      1.0925                 1.0936                 1.0916
 Frc consts  --      6.7086                 6.8227                 6.8468
 IR Inten    --      3.9146                 0.3524                12.4710

                     85                     86                     87
                      A                      A                      A
 Frequencies --   3272.4426              3275.6139              3283.0201
 Red. masses --      1.0963                 1.0921                 1.0987
 Frc consts  --      6.9173                 6.9037                 6.9772
 IR Inten    --      0.2825                11.2524                 3.8421

 - Thermochemistry -
 -------------------
 Temperature   298.150 Kelvin.  Pressure   1.00000 Atm.
 Atom     1 has atomic number  6 and mass  12.00000

 Molecular mass:   238.09536 amu.
 Principal axes and moments of inertia in atomic units:
                           1         2         3
     Eigenvalues --  3012.228333975.648975617.47450
           X            0.99971  -0.02122   0.01175
           Y            0.02102   0.99963   0.01713
           Z           -0.01211  -0.01688   0.99978
 This molecule is an asymmetric top.
 Rotational symmetry number  1.
 Warning -- assumption of classical behavior for rotation
           may cause significant error
 Rotational temperatures (Kelvin)      0.02875     0.02179     0.01542
 Rotational constants (GHZ):           0.59914     0.45395     0.32127
    1 imaginary frequencies ignored.
 Zero-point vibrational energy     646052.9 (Joules/Mol)
                                  154.41034 (Kcal/Mol)
 Warning -- explicit consideration of  21 degrees of freedom as
           vibrations may cause significant error
 Vibrational temperatures:     71.14    78.69    91.74   120.19   137.98
          (Kelvin)            157.75   221.48   229.49   252.97   264.25
                              282.32   305.17   394.28   424.40   479.25
                              490.40   615.80   628.20   658.20   775.53
                              881.18   926.35   984.76  1029.77  1073.94
                             1116.76  1143.40  1153.69  1165.04  1186.64
                             1196.58  1222.67  1277.78  1317.51  1345.00
                             1365.37  1404.46  1407.49  1431.37  1463.98
                             1501.48  1519.23  1542.09  1552.39  1564.02
                             1571.02  1609.43  1623.94  1715.14  1717.65
                             1729.81  1755.89  1769.60  1794.19  1820.85
                             1834.21  1851.14  1882.21  1895.92  1954.69
                             1988.19  2009.64  2057.96  2130.75  2137.72
                             2139.34  2147.09  2148.27  2156.05  2165.91
                             2553.53  2610.01  4405.97  4417.60  4464.10
                             4514.53  4529.60  4551.32  4557.43  4575.87
                             4644.84  4681.75  4694.40  4708.31  4712.87
                             4723.53

 Zero-point correction=                           0.246069 (Hartree/Particle)
 Thermal correction to Energy=                    0.261722
 Thermal correction to Enthalpy=                  0.262667
 Thermal correction to Gibbs Free Energy=         0.202370
 Sum of electronic and zero-point Energies=           -837.619169
 Sum of electronic and thermal Energies=              -837.603516
 Sum of electronic and thermal Enthalpies=            -837.602571
 Sum of electronic and thermal Free Energies=         -837.662868

                     E (Thermal)             CV                S
                      KCal/Mol        Cal/Mol-Kelvin    Cal/Mol-Kelvin
 Total                  164.233             58.370            126.905
 Electronic               0.000              0.000              0.000
 Translational            0.889              2.981             42.304
 Rotational               0.889              2.981             32.575
 Vibrational            162.456             52.409             52.026
 Vibration     1          0.595              1.978              4.839
 Vibration     2          0.596              1.976              4.640
 Vibration     3          0.597              1.972              4.337
 Vibration     4          0.600              1.961              3.806
 Vibration     5          0.603              1.952              3.536
 Vibration     6          0.606              1.941              3.275
 Vibration     7          0.619              1.898              2.623
 Vibration     8          0.621              1.892              2.556
 Vibration     9          0.628              1.872              2.372
 Vibration    10          0.631              1.862              2.291
 Vibration    11          0.636              1.845              2.168
 Vibration    12          0.643              1.822              2.026
 Vibration    13          0.676              1.721              1.571
 Vibration    14          0.689              1.683              1.445
 Vibration    15          0.715              1.609              1.245
 Vibration    16          0.720              1.594              1.208
 Vibration    17          0.790              1.409              0.865
 Vibration    18          0.797              1.390              0.837
 Vibration    19          0.816              1.344              0.774
 Vibration    20          0.894              1.164              0.567
 Vibration    21          0.972              1.005              0.429

 Normal termination of Gaussian 09 at Fri Feb 11 19:05:55 2022.
