 Gaussian 09, Revision D.01,
 Gaussian 09:  ES64L-G09RevD.01 24-Apr-2013

 ------------------------------------------------
 #n wB97XD/Def2TZVP scrf(smd,solvent=toluene) opt
 ------------------------------------------------

 ---------------------------------
 clasisen product in toluene - opt
 ---------------------------------
 Symbolic Z-matrix:
 Charge =  0 Multiplicity = 1

 SCF Done:  E(RwB97XD) =  -1116.08538630     A.U. after   15 cycles
 SCF Done:  E(RwB97XD) =  -1116.08692279     A.U. after   13 cycles
 SCF Done:  E(RwB97XD) =  -1116.08680561     A.U. after   12 cycles
 SCF Done:  E(RwB97XD) =  -1116.08713068     A.U. after   12 cycles
 SCF Done:  E(RwB97XD) =  -1116.08729659     A.U. after   12 cycles
 SCF Done:  E(RwB97XD) =  -1116.08735351     A.U. after   12 cycles
 SCF Done:  E(RwB97XD) =  -1116.08740210     A.U. after   12 cycles
 SCF Done:  E(RwB97XD) =  -1116.08743200     A.U. after   11 cycles
 SCF Done:  E(RwB97XD) =  -1116.08743389     A.U. after   10 cycles
 SCF Done:  E(RwB97XD) =  -1116.08743555     A.U. after    9 cycles
 SCF Done:  E(RwB97XD) =  -1116.08743567     A.U. after    8 cycles
 Optimization completed.
    -- Stationary point found.

                         Standard orientation:
 ---------------------------------------------------------------------
 Center     Atomic      Atomic             Coordinates (Angstroms)
 Number     Number       Type             X           Y           Z
 ---------------------------------------------------------------------
      1          6           0        4.314814   -0.307273    0.377736
      2          6           0        3.353310    0.671761    0.198773
      3          6           0        2.024866    0.326673   -0.035194
      4          6           0        1.682190   -1.034648   -0.090800
      5          6           0        2.659826   -2.007681    0.084993
      6          6           0        3.973231   -1.651481    0.322719
      7          1           0        5.341893   -0.016696    0.560322
      8          1           0        3.637931    1.713463    0.240493
      9          1           0        2.365295   -3.047601    0.029966
     10          1           0        4.728870   -2.413732    0.461872
     11          6           0        0.284729   -1.461310   -0.350828
     12          6           0        0.966039    1.323419   -0.236289
     13          6           0       -0.800231   -0.404916   -0.366969
     14          6           0       -0.310761    1.003167   -0.402884
     15          1           0       -1.052896    1.778569   -0.544355
     16          8           0       -0.003078   -2.625768   -0.523861
     17         17           0        1.425497    3.008321   -0.256610
     18          6           0       -4.106446   -0.012032    0.219323
     19          6           0       -2.952431    0.245554    0.833659
     20          1           0       -2.858078    1.193086    1.356485
     21          6           0       -5.246571    0.963183    0.262788
     22          1           0       -6.128748    0.506592    0.721565
     23          1           0       -4.995363    1.862551    0.825913
     24          1           0       -5.539225    1.261469   -0.748592
     25          6           0       -4.384587   -1.261814   -0.563208
     26          1           0       -3.564157   -1.977519   -0.549561
     27          1           0       -5.277274   -1.761534   -0.176020
     28          1           0       -4.595336   -1.014788   -1.608150
     29          6           0       -1.739596   -0.638282    0.851687
     30          1           0       -1.168533   -0.458085    1.765826
     31          1           0       -2.013407   -1.693181    0.847196
     32          1           0       -1.400086   -0.593819   -1.262742
 ---------------------------------------------------------------------

 The electronic state is 1-A.
 Alpha  occ. eigenvalues -- -101.70041 -19.23794 -10.37738 -10.35559 -10.32290
 Alpha  occ. eigenvalues --  -10.30712 -10.30537 -10.30298 -10.30149 -10.29897
 Alpha  occ. eigenvalues --  -10.29749 -10.29596 -10.29138 -10.29125 -10.27249
 Alpha  occ. eigenvalues --  -10.27210 -10.27172  -9.58606  -7.33242  -7.32390
 Alpha  occ. eigenvalues --   -7.32365  -1.15010  -1.00467  -0.96562  -0.93613
 Alpha  occ. eigenvalues --   -0.90973  -0.87350  -0.86583  -0.83414  -0.79515
 Alpha  occ. eigenvalues --   -0.78856  -0.74337  -0.72920  -0.71029  -0.67504
 Alpha  occ. eigenvalues --   -0.62486  -0.61462  -0.59790  -0.59002  -0.56861
 Alpha  occ. eigenvalues --   -0.54955  -0.54066  -0.53331  -0.52754  -0.52392
 Alpha  occ. eigenvalues --   -0.51856  -0.51220  -0.50051  -0.49019  -0.48032
 Alpha  occ. eigenvalues --   -0.46818  -0.46662  -0.45576  -0.45088  -0.44758
 Alpha  occ. eigenvalues --   -0.43887  -0.43283  -0.42757  -0.40871  -0.39893
 Alpha  occ. eigenvalues --   -0.37201  -0.34466  -0.34181  -0.32010  -0.30645
 Alpha virt. eigenvalues --   -0.00888   0.02489   0.08150   0.09938   0.10156
 Alpha virt. eigenvalues --    0.10981   0.11852   0.13666   0.14061   0.14566
 Alpha virt. eigenvalues --    0.15861   0.16651   0.17451   0.17751   0.18155

 Mulliken charges:
               1
     1  C   -0.114113
     2  C   -0.204033
     3  C    0.120778
     4  C   -0.030706
     5  C   -0.173935
     6  C   -0.119127
     7  H    0.146367
     8  H    0.144412
     9  H    0.153739
    10  H    0.145685
    11  C    0.230678
    12  C    0.067823
    13  C    0.076864
    14  C   -0.309311
    15  H    0.167253
    16  O   -0.365699
    17  Cl  -0.101239
    18  C    0.033885
    19  C   -0.274904
    20  H    0.140715
    21  C   -0.356735
    22  H    0.129943
    23  H    0.124213
    24  H    0.126605
    25  C   -0.366859
    26  H    0.132748
    27  H    0.134501
    28  H    0.134549
    29  C   -0.216545
    30  H    0.134075
    31  H    0.158169
    32  H    0.130205
 Sum of Mulliken charges =   0.00000

 Dipole moment (field-independent basis, Debye):
    X=             -0.0514    Y=              0.8953    Z=              0.4926  Tot=              1.0232
 Quadrupole moment (field-independent basis, Debye-Ang):
   XX=            -86.4734   YY=           -115.3952   ZZ=           -109.3383
   XY=             -4.3737   XZ=              4.0817   YZ=             -1.4522

 Normal termination of Gaussian 09 at Wed Feb  2 16:48:01 2022.
