 Gaussian 09, Revision D.01,
 Gaussian 09:  ES64L-G09RevD.01 24-Apr-2013

 -------------------------------------------------
 #n wB97XD/Def2TZVP scrf(smd,solvent=toluene) freq
 -------------------------------------------------

 ----------------------------------
 clasisen product in toluene - freq
 ----------------------------------
 Symbolic Z-matrix:
 Charge =  0 Multiplicity = 1

                         Standard orientation:
 ---------------------------------------------------------------------
 Center     Atomic      Atomic             Coordinates (Angstroms)
 Number     Number       Type             X           Y           Z
 ---------------------------------------------------------------------
      1          6           0        4.314810   -0.307271    0.377740
      2          6           0        3.353310    0.671759    0.198770
      3          6           0        2.024870    0.326670   -0.035190
      4          6           0        1.682190   -1.034650   -0.090800
      5          6           0        2.659829   -2.007680    0.084990
      6          6           0        3.973230   -1.651481    0.322720
      7          1           0        5.341890   -0.016701    0.560320
      8          1           0        3.637930    1.713459    0.240490
      9          1           0        2.365299   -3.047600    0.029970
     10          1           0        4.728869   -2.413731    0.461870
     11          6           0        0.284730   -1.461310   -0.350830
     12          6           0        0.966040    1.323420   -0.236290
     13          6           0       -0.800230   -0.404920   -0.366970
     14          6           0       -0.310760    1.003170   -0.402880
     15          1           0       -1.052900    1.778570   -0.544360
     16          8           0       -0.003081   -2.625770   -0.523860
     17         17           0        1.425501    3.008320   -0.256610
     18          6           0       -4.106450   -0.012029    0.219320
     19          6           0       -2.952430    0.245551    0.833660
     20          1           0       -2.858080    1.193091    1.356480
     21          6           0       -5.246570    0.963182    0.262790
     22          1           0       -6.128750    0.506592    0.721570
     23          1           0       -4.995360    1.862551    0.825910
     24          1           0       -5.539230    1.261472   -0.748590
     25          6           0       -4.384590   -1.261809   -0.563210
     26          1           0       -3.564161   -1.977519   -0.549560
     27          1           0       -5.277271   -1.761528   -0.176020
     28          1           0       -4.595340   -1.014789   -1.608150
     29          6           0       -1.739600   -0.638279    0.851690
     30          1           0       -1.168530   -0.458089    1.765830
     31          1           0       -2.013410   -1.693179    0.847200
     32          1           0       -1.400090   -0.593819   -1.262740
 ---------------------------------------------------------------------

 SCF Done:  E(RwB97XD) =  -1116.08743567     A.U. after   15 cycles

 The electronic state is 1-A.
 Alpha  occ. eigenvalues -- -101.70041 -19.23794 -10.37738 -10.35559 -10.32290
 Alpha  occ. eigenvalues --  -10.30712 -10.30537 -10.30298 -10.30148 -10.29897
 Alpha  occ. eigenvalues --  -10.29749 -10.29596 -10.29138 -10.29125 -10.27249
 Alpha  occ. eigenvalues --  -10.27210 -10.27172  -9.58606  -7.33242  -7.32390
 Alpha  occ. eigenvalues --   -7.32365  -1.15009  -1.00467  -0.96562  -0.93613
 Alpha  occ. eigenvalues --   -0.90973  -0.87350  -0.86583  -0.83414  -0.79515
 Alpha  occ. eigenvalues --   -0.78856  -0.74337  -0.72919  -0.71029  -0.67504
 Alpha  occ. eigenvalues --   -0.62486  -0.61462  -0.59790  -0.59002  -0.56861
 Alpha  occ. eigenvalues --   -0.54955  -0.54066  -0.53331  -0.52754  -0.52392
 Alpha  occ. eigenvalues --   -0.51856  -0.51220  -0.50051  -0.49019  -0.48032
 Alpha  occ. eigenvalues --   -0.46818  -0.46662  -0.45576  -0.45088  -0.44758
 Alpha  occ. eigenvalues --   -0.43887  -0.43283  -0.42757  -0.40871  -0.39893
 Alpha  occ. eigenvalues --   -0.37201  -0.34466  -0.34181  -0.32009  -0.30645
 Alpha virt. eigenvalues --   -0.00888   0.02490   0.08150   0.09938   0.10156
 Alpha virt. eigenvalues --    0.10981   0.11852   0.13666   0.14061   0.14566
 Alpha virt. eigenvalues --    0.15861   0.16651   0.17451   0.17751   0.18155

 Mulliken charges:
               1
     1  C   -0.114112
     2  C   -0.204034
     3  C    0.120784
     4  C   -0.030705
     5  C   -0.173936
     6  C   -0.119127
     7  H    0.146366
     8  H    0.144411
     9  H    0.153738
    10  H    0.145685
    11  C    0.230679
    12  C    0.067822
    13  C    0.076863
    14  C   -0.309311
    15  H    0.167253
    16  O   -0.365702
    17  Cl  -0.101239
    18  C    0.033885
    19  C   -0.274903
    20  H    0.140714
    21  C   -0.356736
    22  H    0.129943
    23  H    0.124213
    24  H    0.126605
    25  C   -0.366859
    26  H    0.132748
    27  H    0.134501
    28  H    0.134549
    29  C   -0.216547
    30  H    0.134076
    31  H    0.158169
    32  H    0.130206
 Sum of Mulliken charges =   0.00000

 Dipole moment (field-independent basis, Debye):
    X=             -0.0514    Y=              0.8953    Z=              0.4926  Tot=              1.0232
 Quadrupole moment (field-independent basis, Debye-Ang):
   XX=            -86.4732   YY=           -115.3953   ZZ=           -109.3383
   XY=             -4.3737   XZ=              4.0817   YZ=             -1.4522

  Exact polarizability: 309.656  -0.429 226.358  23.322   3.713 135.833
 Approx polarizability: 254.551   7.857 225.040  21.017   4.248 151.412

                      1                      2                      3
                      A                      A                      A
 Frequencies --     26.9432                43.1284                71.5785
 Red. masses --      5.3975                 4.7428                 3.6132
 Frc consts  --      0.0023                 0.0052                 0.0109
 IR Inten    --      1.5331                 0.8171                 0.4113

                      4                      5                      6
                      A                      A                      A
 Frequencies --     87.6315               111.3623               115.3276
 Red. masses --      3.2632                 4.8140                 4.3123
 Frc consts  --      0.0148                 0.0352                 0.0338
 IR Inten    --      0.0923                 0.1863                 1.4229

                      7                      8                      9
                      A                      A                      A
 Frequencies --    177.7081               181.5432               209.9445
 Red. masses --      1.3358                 2.1790                 3.1181
 Frc consts  --      0.0249                 0.0423                 0.0810
 IR Inten    --      0.6143                 1.1585                 5.2626

                     10                     11                     12
                      A                      A                      A
 Frequencies --    216.3907               226.1707               295.7951
 Red. masses --      1.6271                 3.9556                 2.9897
 Frc consts  --      0.0449                 0.1192                 0.1541
 IR Inten    --      0.5393                 0.9500                 0.6239

                     13                     14                     15
                      A                      A                      A
 Frequencies --    320.6797               337.4526               370.2297
 Red. masses --      3.2244                 5.8146                10.2411
 Frc consts  --      0.1954                 0.3901                 0.8271
 IR Inten    --      5.4838                10.1909                 0.1501

                     16                     17                     18
                      A                      A                      A
 Frequencies --    400.8906               416.4182               435.8635
 Red. masses --      2.8003                 3.4256                 2.9949
 Frc consts  --      0.2652                 0.3500                 0.3352
 IR Inten    --      2.1893                 4.6981                 0.8061

                     19                     20                     21
                      A                      A                      A
 Frequencies --    460.0291               481.3302               500.6638
 Red. masses --      3.7024                 4.4012                 2.5935
 Frc consts  --      0.4616                 0.6008                 0.3830
 IR Inten    --      4.3979                 1.8265                 1.2805

                     22                     23                     24
                      A                      A                      A
 Frequencies --    539.2826               556.9601               618.6457
 Red. masses --      5.3341                 3.0877                 3.4727
 Frc consts  --      0.9140                 0.5643                 0.7831
 IR Inten    --     10.4006                 9.9599                 5.3811

                     25                     26                     27
                      A                      A                      A
 Frequencies --    635.1565               650.0435               709.1966
 Red. masses --      3.4453                 6.0215                 4.0340
 Frc consts  --      0.8189                 1.4991                 1.1954
 IR Inten    --      3.0504                20.3561                13.4353

                     28                     29                     30
                      A                      A                      A
 Frequencies --    732.0512               786.3380               787.3193
 Red. masses --      4.8384                 3.4471                 2.8106
 Frc consts  --      1.5277                 1.2558                 1.0265
 IR Inten    --     12.8641                10.3877                 3.7848

                     31                     32                     33
                      A                      A                      A
 Frequencies --    805.0944               836.9280               873.6109
 Red. masses --      1.6650                 3.1206                 1.6717
 Frc consts  --      0.6359                 1.2878                 0.7517
 IR Inten    --     55.4680                 5.4370                27.8427

                     34                     35                     36
                      A                      A                      A
 Frequencies --    902.0291               918.1115               923.7316
 Red. masses --      1.3637                 1.9972                 1.6096
 Frc consts  --      0.6537                 0.9919                 0.8092
 IR Inten    --     16.9801                18.8488                13.7064

                     37                     38                     39
                      A                      A                      A
 Frequencies --    959.7351               972.5987               993.5706
 Red. masses --      5.1535                 1.4066                 2.1653
 Frc consts  --      2.7967                 0.7840                 1.2594
 IR Inten    --     69.9098                 0.3334                 1.2885

                     40                     41                     42
                      A                      A                      A
 Frequencies --   1010.2582              1026.8373              1036.7247
 Red. masses --      1.4552                 1.2481                 1.3513
 Frc consts  --      0.8751                 0.7754                 0.8557
 IR Inten    --      1.8308                 6.0465                 0.2243

                     43                     44                     45
                      A                      A                      A
 Frequencies --   1056.4187              1060.6036              1082.3009
 Red. masses --      3.1413                 2.8891                 1.9606
 Frc consts  --      2.0655                 1.9148                 1.3531
 IR Inten    --     17.5720                47.9927                 2.0541

                     46                     47                     48
                      A                      A                      A
 Frequencies --   1113.9150              1116.3445              1141.1475
 Red. masses --      2.2939                 1.7444                 1.9222
 Frc consts  --      1.6770                 1.2808                 1.4748
 IR Inten    --     10.1082                 1.8988                12.9904

                     49                     50                     51
                      A                      A                      A
 Frequencies --   1157.1058              1172.7756              1189.4379
 Red. masses --      1.6209                 1.3781                 1.1594
 Frc consts  --      1.2786                 1.1168                 0.9665
 IR Inten    --      3.5250                13.3634                 5.7646

                     52                     53                     54
                      A                      A                      A
 Frequencies --   1220.1374              1254.8427              1270.9140
 Red. masses --      1.8682                 1.8662                 2.1208
 Frc consts  --      1.6386                 1.7314                 2.0183
 IR Inten    --     19.7880                 2.1564                55.1620

                     55                     56                     57
                      A                      A                      A
 Frequencies --   1276.0333              1319.2035              1338.6282
 Red. masses --      1.3733                 2.2269                 1.8708
 Frc consts  --      1.3175                 2.2834                 1.9751
 IR Inten    --      0.9466               115.7500                 3.1623

                     58                     59                     60
                      A                      A                      A
 Frequencies --   1342.4155              1371.4450              1382.9059
 Red. masses --      2.2341                 1.8396                 1.7562
 Frc consts  --      2.3721                 2.0386                 1.9789
 IR Inten    --     12.0661                49.5824                28.9566

                     61                     62                     63
                      A                      A                      A
 Frequencies --   1392.9057              1417.1243              1434.1872
 Red. masses --      1.4041                 1.3339                 1.3773
 Frc consts  --      1.6050                 1.5783                 1.6692
 IR Inten    --      4.7667                 5.9398                14.2513

                     64                     65                     66
                      A                      A                      A
 Frequencies --   1470.4396              1480.0727              1490.4065
 Red. masses --      1.0465                 1.0552                 1.0735
 Frc consts  --      1.3332                 1.3619                 1.4050
 IR Inten    --      1.9909                 5.8051                17.5284

                     67                     68                     69
                      A                      A                      A
 Frequencies --   1495.9506              1500.7427              1507.7496
 Red. masses --      1.0644                 2.4127                 1.0888
 Frc consts  --      1.4034                 3.2016                 1.4584
 IR Inten    --     14.3344                21.9587                 9.8379

                     70                     71                     72
                      A                      A                      A
 Frequencies --   1526.0681              1641.1587              1672.4597
 Red. masses --      2.8349                 6.3450                 6.2367
 Frc consts  --      3.8899                10.0689                10.2782
 IR Inten    --     14.4410                 0.9801                76.4406

                     73                     74                     75
                      A                      A                      A
 Frequencies --   1728.7603              1760.6296              1784.7355
 Red. masses --      8.4978                 6.8363                12.3851
 Frc consts  --     14.9632                12.4856                23.2433
 IR Inten    --     33.1595                14.7300               271.3211

                     76                     77                     78
                      A                      A                      A
 Frequencies --   3042.1470              3048.5226              3064.0821
 Red. masses --      1.0377                 1.0412                 1.0777
 Frc consts  --      5.6584                 5.7013                 5.9616
 IR Inten    --     34.0127                44.8229                 2.8625

                     79                     80                     81
                      A                      A                      A
 Frequencies --   3075.7712              3098.4078              3100.8671
 Red. masses --      1.0675                 1.1000                 1.0991
 Frc consts  --      5.9500                 6.2221                 6.2264
 IR Inten    --     16.9430                 6.7268                33.5328

                     82                     83                     84
                      A                      A                      A
 Frequencies --   3127.9393              3135.8413              3157.0814
 Red. masses --      1.1010                 1.1017                 1.0978
 Frc consts  --      6.3470                 6.3830                 6.4468
 IR Inten    --     11.9927                25.1250                20.4429

                     85                     86                     87
                      A                      A                      A
 Frequencies --   3169.0569              3205.9550              3210.8082
 Red. masses --      1.0896                 1.0875                 1.0923
 Frc consts  --      6.4475                 6.5855                 6.6347
 IR Inten    --     22.9816                 2.1056                 1.2358

                     88                     89                     90
                      A                      A                      A
 Frequencies --   3221.0333              3231.4171              3241.2737
 Red. masses --      1.0917                 1.0945                 1.0941
 Frc consts  --      6.6735                 6.7339                 6.7726
 IR Inten    --      7.3817                 7.5602                 4.0940

 - Thermochemistry -
 -------------------
 Temperature   298.150 Kelvin.  Pressure   1.00000 Atm.
 Atom     1 has atomic number  6 and mass  12.00000

 Molecular mass:   246.08114 amu.
 Principal axes and moments of inertia in atomic units:
                           1         2         3
     Eigenvalues --  2555.392477157.911009347.80876
           X            0.99993  -0.01144   0.00353
           Y            0.01142   0.99992   0.00483
           Z           -0.00359  -0.00479   0.99998
 This molecule is an asymmetric top.
 Rotational symmetry number  1.
 Warning -- assumption of classical behavior for rotation
           may cause significant error
 Rotational temperatures (Kelvin)      0.03389     0.01210     0.00927
 Rotational constants (GHZ):           0.70625     0.25213     0.19307
 Zero-point vibrational energy     688220.4 (Joules/Mol)
                                  164.48863 (Kcal/Mol)
 Warning -- explicit consideration of  24 degrees of freedom as
           vibrations may cause significant error
 Vibrational temperatures:     38.77    62.05   102.99   126.08   160.23
          (Kelvin)            165.93   255.68   261.20   302.06   311.34
                              325.41   425.58   461.39   485.52   532.68
                              576.79   599.13   627.11   661.88   692.53
                              720.34   775.91   801.34   890.09   913.85
                              935.27  1020.37  1053.26  1131.36  1132.78
                             1158.35  1204.15  1256.93  1297.82  1320.96
                             1329.04  1380.84  1399.35  1429.52  1453.53
                             1477.39  1491.61  1519.95  1525.97  1557.19
                             1602.67  1606.17  1641.85  1664.82  1687.36
                             1711.33  1755.50  1805.44  1828.56  1835.93
                             1898.04  1925.99  1931.43  1973.20  1989.69
                             2004.08  2038.92  2063.47  2115.63  2129.49
                             2144.36  2152.34  2159.23  2169.31  2195.67
                             2361.26  2406.29  2487.30  2533.15  2567.83
                             4376.97  4386.14  4408.53  4425.34  4457.91
                             4461.45  4500.40  4511.77  4542.33  4559.56
                             4612.65  4619.63  4634.34  4649.28  4663.46

 Zero-point correction=                           0.262129 (Hartree/Particle)
 Thermal correction to Energy=                    0.277720
 Thermal correction to Enthalpy=                  0.278665
 Thermal correction to Gibbs Free Energy=         0.218087
 Sum of electronic and zero-point Energies=          -1115.825306
 Sum of electronic and thermal Energies=             -1115.809715
 Sum of electronic and thermal Enthalpies=           -1115.808771
 Sum of electronic and thermal Free Energies=        -1115.869348

                     E (Thermal)             CV                S
                      KCal/Mol        Cal/Mol-Kelvin    Cal/Mol-Kelvin
 Total                  174.272             59.810            127.495
 Electronic               0.000              0.000              0.000
 Translational            0.889              2.981             42.402
 Rotational               0.889              2.981             33.502
 Vibrational            172.495             53.848             51.591
 Vibration     1          0.593              1.984              6.043
 Vibration     2          0.595              1.980              5.110
 Vibration     3          0.598              1.968              4.109
 Vibration     4          0.601              1.958              3.712
 Vibration     5          0.607              1.940              3.245
 Vibration     6          0.608              1.937              3.177
 Vibration     7          0.628              1.870              2.352
 Vibration     8          0.630              1.865              2.312
 Vibration     9          0.642              1.826              2.044
 Vibration    10          0.645              1.816              1.989
 Vibration    11          0.650              1.801              1.909
 Vibration    12          0.690              1.682              1.441
 Vibration    13          0.706              1.634              1.307
 Vibration    14          0.718              1.601              1.224
 Vibration    15          0.742              1.533              1.079
 Vibration    16          0.767              1.468              0.959
 Vibration    17          0.780              1.435              0.904
 Vibration    18          0.796              1.392              0.840
 Vibration    19          0.818              1.339              0.766
 Vibration    20          0.838              1.291              0.706
 Vibration    21          0.856              1.249              0.656
 Vibration    22          0.894              1.163              0.567
 Vibration    23          0.912              1.124              0.530
 Vibration    24          0.979              0.993              0.419

 Normal termination of Gaussian 09 at Fri Feb  4 15:59:28 2022.
