 Gaussian 09, Revision D.01,
 Gaussian 09:  ES64L-G09RevD.01 24-Apr-2013

 ------------------------------------------------
 #n wB97XD/Def2TZVP scrf(smd,solvent=toluene) opt
 ------------------------------------------------

 ---------------------------------------
 starting material claisen toluene - opt
 ---------------------------------------
 Symbolic Z-matrix:
 Charge =  0 Multiplicity = 1

 SCF Done:  E(RwB97XD) =  -1116.07738779     A.U. after   15 cycles
 SCF Done:  E(RwB97XD) =  -1116.07884307     A.U. after   11 cycles
 SCF Done:  E(RwB97XD) =  -1116.07835868     A.U. after   11 cycles
 SCF Done:  E(RwB97XD) =  -1116.07897334     A.U. after    8 cycles
 SCF Done:  E(RwB97XD) =  -1116.07887365     A.U. after   10 cycles
 SCF Done:  E(RwB97XD) =  -1116.07903737     A.U. after   10 cycles
 SCF Done:  E(RwB97XD) =  -1116.07904737     A.U. after    9 cycles
 SCF Done:  E(RwB97XD) =  -1116.07909046     A.U. after   11 cycles
 SCF Done:  E(RwB97XD) =  -1116.07910217     A.U. after   10 cycles
 SCF Done:  E(RwB97XD) =  -1116.07912916     A.U. after   11 cycles
 SCF Done:  E(RwB97XD) =  -1116.07912248     A.U. after   10 cycles
 SCF Done:  E(RwB97XD) =  -1116.07912859     A.U. after   10 cycles
 SCF Done:  E(RwB97XD) =  -1116.07912812     A.U. after    7 cycles
 Optimization completed.
    -- Stationary point found.

                         Standard orientation:
 ---------------------------------------------------------------------
 Center     Atomic      Atomic             Coordinates (Angstroms)
 Number     Number       Type             X           Y           Z
 ---------------------------------------------------------------------
      1          6           0       -2.821679    2.486918    0.156874
      2          6           0       -3.004370    1.136572    0.067802
      3          6           0       -1.899347    0.254679    0.039188
      4          6           0       -0.590881    0.800893    0.104908
      5          6           0       -0.436499    2.202912    0.193365
      6          6           0       -1.524929    3.027677    0.219261
      7          1           0       -3.680378    3.146288    0.178266
      8          1           0       -4.003419    0.726279    0.019185
      9          1           0        0.563122    2.610710    0.242494
     10          1           0       -1.390418    4.099669    0.289251
     11          6           0        0.544680   -0.067629    0.081881
     12          6           0       -2.027204   -1.156091   -0.058707
     13          6           0        0.363612   -1.422127    0.005205
     14          1           0        1.205443   -2.096507    0.020408
     15          6           0       -0.932546   -1.963118   -0.073750
     16          1           0       -1.053576   -3.035768   -0.142291
     17          8           0        1.734609    0.563516    0.181612
     18         17           0       -3.608983   -1.884119   -0.163345
     19          6           0        2.968236    0.051311   -0.350384
     20          6           0        3.584521   -0.992984    0.549907
     21          1           0        4.438196   -1.504628    0.113307
     22          6           0        2.796862   -0.466235   -1.777627
     23          1           0        3.780878   -0.633969   -2.217467
     24          1           0        2.243617   -1.401507   -1.831142
     25          1           0        2.276463    0.278068   -2.382409
     26          6           0        3.880281    1.277379   -0.361545
     27          1           0        3.923769    1.719270    0.634083
     28          1           0        4.892023    0.997792   -0.658422
     29          1           0        3.504080    2.021529   -1.065897
     30          6           0        3.211100   -1.272337    1.786634
     31          1           0        3.738296   -2.014274    2.373727
     32          1           0        2.366712   -0.777984    2.252814
 ---------------------------------------------------------------------

 The electronic state is 1-A.
 Alpha  occ. eigenvalues -- -101.69341 -19.27841 -10.36067 -10.35343 -10.34151
 Alpha  occ. eigenvalues --  -10.30791 -10.30172 -10.29580 -10.28949 -10.28877
 Alpha  occ. eigenvalues --  -10.28793 -10.28769 -10.28680 -10.28531 -10.27739
 Alpha  occ. eigenvalues --  -10.27633 -10.27458  -9.57899  -7.32533  -7.31683
 Alpha  occ. eigenvalues --   -7.31664  -1.17339  -0.99986  -0.95681  -0.93334
 Alpha  occ. eigenvalues --   -0.91173  -0.86084  -0.85034  -0.84933  -0.81349
 Alpha  occ. eigenvalues --   -0.79102  -0.73474  -0.72347  -0.71089  -0.69038
 Alpha  occ. eigenvalues --   -0.64873  -0.61468  -0.60372  -0.59031  -0.57712
 Alpha  occ. eigenvalues --   -0.56422  -0.55286  -0.53266  -0.52348  -0.51866
 Alpha  occ. eigenvalues --   -0.51572  -0.50365  -0.50025  -0.48826  -0.48022
 Alpha  occ. eigenvalues --   -0.47160  -0.46573  -0.45866  -0.45224  -0.44219
 Alpha  occ. eigenvalues --   -0.43381  -0.42625  -0.42265  -0.39931  -0.39304
 Alpha  occ. eigenvalues --   -0.38223  -0.34810  -0.34649  -0.32733  -0.27848
 Alpha virt. eigenvalues --    0.01775   0.04190   0.07303   0.09628   0.11044
 Alpha virt. eigenvalues --    0.11342   0.13864   0.14474   0.14955   0.15601
 Alpha virt. eigenvalues --    0.16076   0.16663   0.17030   0.17788   0.18074

 Mulliken charges:
               1
     1  C   -0.129330
     2  C   -0.198896
     3  C    0.057794
     4  C    0.067953
     5  C   -0.263393
     6  C   -0.103178
     7  H    0.139524
     8  H    0.137161
     9  H    0.155508
    10  H    0.137110
    11  C    0.282796
    12  C    0.076897
    13  C   -0.234956
    14  H    0.176760
    15  C   -0.248349
    16  H    0.143365
    17  O   -0.323401
    18  Cl  -0.111708
    19  C    0.266522
    20  C   -0.246530
    21  H    0.146576
    22  C   -0.416111
    23  H    0.142567
    24  H    0.147054
    25  H    0.147502
    26  C   -0.369477
    27  H    0.140372
    28  H    0.133632
    29  H    0.132928
    30  C   -0.295430
    31  H    0.149180
    32  H    0.159556
 Sum of Mulliken charges =   0.00000

 Dipole moment (field-independent basis, Debye):
    X=              3.5305    Y=              0.5257    Z=             -0.8108  Tot=              3.6603
 Quadrupole moment (field-independent basis, Debye-Ang):
   XX=           -100.0934   YY=            -99.8758   ZZ=           -109.4875
   XY=             -7.9093   XZ=             -3.6085   YZ=             -0.3055

 Normal termination of Gaussian 09 at Wed Feb  2 17:31:32 2022.
