 Gaussian 09, Revision D.01,
 Gaussian 09:  ES64L-G09RevD.01 24-Apr-2013

 -------------------------------------------------
 #n wB97XD/Def2TZVP scrf(smd,solvent=toluene) freq
 -------------------------------------------------

 ----------------------------------------
 starting material claisen toluene - freq
 ----------------------------------------
 Symbolic Z-matrix:
 Charge =  0 Multiplicity = 1

                         Standard orientation:
 ---------------------------------------------------------------------
 Center     Atomic      Atomic             Coordinates (Angstroms)
 Number     Number       Type             X           Y           Z
 ---------------------------------------------------------------------
      1          6           0        2.821680    2.486920   -0.156869
      2          6           0        3.004370    1.136570   -0.067799
      3          6           0        1.899350    0.254680   -0.039189
      4          6           0        0.590880    0.800890   -0.104909
      5          6           0        0.436500    2.202910   -0.193369
      6          6           0        1.524931    3.027680   -0.219259
      7          1           0        3.680381    3.146290   -0.178269
      8          1           0        4.003420    0.726280   -0.019189
      9          1           0       -0.563120    2.610710   -0.242489
     10          1           0        1.390421    4.099670   -0.289249
     11          6           0       -0.544680   -0.067630   -0.081879
     12          6           0        2.027200   -1.156090    0.058711
     13          6           0       -0.363610   -1.422130   -0.005209
     14          1           0       -1.205440   -2.096509   -0.020409
     15          6           0        0.932550   -1.963120    0.073751
     16          1           0        1.053579   -3.035770    0.142291
     17          8           0       -1.734610    0.563521   -0.181609
     18         17           0        3.608980   -1.884120    0.163341
     19          6           0       -2.968240    0.051311    0.350381
     20          6           0       -3.584520   -0.992979   -0.549909
     21          1           0       -4.438200   -1.504629   -0.113309
     22          6           0       -2.796860   -0.466239    1.777631
     23          1           0       -3.780880   -0.633969    2.217471
     24          1           0       -2.243620   -1.401509    1.831141
     25          1           0       -2.276460    0.278071    2.382411
     26          6           0       -3.880280    1.277381    0.361551
     27          1           0       -3.923770    1.719271   -0.634079
     28          1           0       -4.892020    0.997791    0.658421
     29          1           0       -3.504080    2.021531    1.065901
     30          6           0       -3.211100   -1.272339   -1.786629
     31          1           0       -3.738300   -2.014269   -2.373729
     32          1           0       -2.366710   -0.777979   -2.252809
 ---------------------------------------------------------------------

 SCF Done:  E(RwB97XD) =  -1116.07912812     A.U. after   15 cycles

 The electronic state is 1-A.
 Alpha  occ. eigenvalues -- -101.69341 -19.27841 -10.36067 -10.35343 -10.34151
 Alpha  occ. eigenvalues --  -10.30791 -10.30172 -10.29580 -10.28949 -10.28877
 Alpha  occ. eigenvalues --  -10.28793 -10.28769 -10.28680 -10.28531 -10.27739
 Alpha  occ. eigenvalues --  -10.27633 -10.27458  -9.57899  -7.32532  -7.31683
 Alpha  occ. eigenvalues --   -7.31664  -1.17339  -0.99986  -0.95681  -0.93334
 Alpha  occ. eigenvalues --   -0.91173  -0.86084  -0.85034  -0.84933  -0.81348
 Alpha  occ. eigenvalues --   -0.79102  -0.73474  -0.72347  -0.71089  -0.69038
 Alpha  occ. eigenvalues --   -0.64873  -0.61468  -0.60372  -0.59030  -0.57712
 Alpha  occ. eigenvalues --   -0.56422  -0.55286  -0.53266  -0.52348  -0.51866
 Alpha  occ. eigenvalues --   -0.51572  -0.50365  -0.50025  -0.48826  -0.48022
 Alpha  occ. eigenvalues --   -0.47160  -0.46573  -0.45866  -0.45224  -0.44219
 Alpha  occ. eigenvalues --   -0.43381  -0.42625  -0.42265  -0.39931  -0.39304
 Alpha  occ. eigenvalues --   -0.38223  -0.34810  -0.34649  -0.32733  -0.27848
 Alpha virt. eigenvalues --    0.01775   0.04190   0.07303   0.09628   0.11044
 Alpha virt. eigenvalues --    0.11342   0.13864   0.14474   0.14955   0.15601
 Alpha virt. eigenvalues --    0.16076   0.16663   0.17030   0.17788   0.18074

 Mulliken charges:
               1
     1  C   -0.129328
     2  C   -0.198897
     3  C    0.057793
     4  C    0.067954
     5  C   -0.263391
     6  C   -0.103181
     7  H    0.139525
     8  H    0.137161
     9  H    0.155507
    10  H    0.137111
    11  C    0.282795
    12  C    0.076902
    13  C   -0.234958
    14  H    0.176759
    15  C   -0.248350
    16  H    0.143366
    17  O   -0.323400
    18  Cl  -0.111710
    19  C    0.266522
    20  C   -0.246530
    21  H    0.146575
    22  C   -0.416110
    23  H    0.142567
    24  H    0.147054
    25  H    0.147502
    26  C   -0.369476
    27  H    0.140371
    28  H    0.133632
    29  H    0.132929
    30  C   -0.295429
    31  H    0.149181
    32  H    0.159555
 Sum of Mulliken charges =   0.00000

 Dipole moment (field-independent basis, Debye):
    X=             -3.5305    Y=              0.5257    Z=              0.8108  Tot=              3.6603
 Quadrupole moment (field-independent basis, Debye-Ang):
   XX=           -100.0934   YY=            -99.8757   ZZ=           -109.4876
   XY=              7.9094   XZ=             -3.6085   YZ=              0.3055

  Exact polarizability: 273.915   8.572 255.844  -2.554  -0.006 149.997
 Approx polarizability: 244.452   4.190 247.014  -2.434  -2.081 158.533

                      1                      2                      3
                      A                      A                      A
 Frequencies --     34.1792                56.8447               100.7600
 Red. masses --      4.3053                 4.3150                 3.0861
 Frc consts  --      0.0030                 0.0082                 0.0185
 IR Inten    --      0.8546                 0.1431                 0.3470

                      4                      5                      6
                      A                      A                      A
 Frequencies --    114.4760               123.7781               158.5037
 Red. masses --      3.0820                 4.2317                 4.6572
 Frc consts  --      0.0238                 0.0382                 0.0689
 IR Inten    --      0.1056                 0.0281                 0.9720

                      7                      8                      9
                      A                      A                      A
 Frequencies --    180.2005               195.1663               230.7504
 Red. masses --      4.0499                 4.5342                 6.4619
 Frc consts  --      0.0775                 0.1018                 0.2027
 IR Inten    --      2.0883                 2.2699                 1.4860

                     10                     11                     12
                      A                      A                      A
 Frequencies --    245.4738               283.4119               293.8746
 Red. masses --      1.1112                 2.8016                 1.0689
 Frc consts  --      0.0395                 0.1326                 0.0544
 IR Inten    --      0.2450                 1.1587                 0.0312

                     13                     14                     15
                      A                      A                      A
 Frequencies --    326.9133               332.2756               364.5021
 Red. masses --      3.6128                 2.4002                 3.6443
 Frc consts  --      0.2275                 0.1561                 0.2853
 IR Inten    --      1.7229                 1.8188                 1.1233

                     16                     17                     18
                      A                      A                      A
 Frequencies --    381.8832               420.1370               430.4730
 Red. masses --      2.9255                 4.7378                 3.1159
 Frc consts  --      0.2514                 0.4927                 0.3402
 IR Inten    --      0.4859                 2.6931                 7.6400

                     19                     20                     21
                      A                      A                      A
 Frequencies --    459.3345               482.9581               499.1189
 Red. masses --      3.1227                 3.4060                 4.8464
 Frc consts  --      0.3882                 0.4681                 0.7113
 IR Inten    --      0.7453                 0.3493                 3.1336

                     22                     23                     24
                      A                      A                      A
 Frequencies --    537.1289               566.3116               605.1986
 Red. masses --      5.9252                 4.1632                 4.0162
 Frc consts  --      1.0072                 0.7867                 0.8667
 IR Inten    --      4.6202                 1.5525                 5.2813

                     25                     26                     27
                      A                      A                      A
 Frequencies --    620.0609               661.8583               678.1178
 Red. masses --      3.1393                 4.0759                 3.8164
 Frc consts  --      0.7111                 1.0520                 1.0340
 IR Inten    --      3.2646                 9.7212                 8.4508

                     28                     29                     30
                      A                      A                      A
 Frequencies --    701.7200               749.9065               778.1414
 Red. masses --      2.0908                 4.4619                 3.6932
 Frc consts  --      0.6066                 1.4784                 1.3176
 IR Inten    --     23.1885                10.9219                18.0555

                     31                     32                     33
                      A                      A                      A
 Frequencies --    792.7454               811.7843               823.5089
 Red. masses --      1.5083                 4.3884                 2.7007
 Frc consts  --      0.5585                 1.7039                 1.0791
 IR Inten    --     74.4518                 0.7408                 4.9430

                     34                     35                     36
                      A                      A                      A
 Frequencies --    869.4904               902.8357               911.2816
 Red. masses --      1.4032                 1.9218                 2.4716
 Frc consts  --      0.6250                 0.9230                 1.2093
 IR Inten    --     44.0291                 6.0798                43.2167

                     37                     38                     39
                      A                      A                      A
 Frequencies --    949.5380               959.0358               970.0110
 Red. masses --      1.7374                 1.8385                 1.4099
 Frc consts  --      0.9229                 0.9963                 0.7816
 IR Inten    --     14.5307                 6.7261                 0.6094

                     40                     41                     42
                      A                      A                      A
 Frequencies --    976.9766               985.3722               995.8407
 Red. masses --      1.3640                 4.0269                 1.3501
 Frc consts  --      0.7671                 2.3037                 0.7888
 IR Inten    --     48.9730                15.4686                 0.2596

                     43                     44                     45
                      A                      A                      A
 Frequencies --   1018.9192              1032.1234              1048.8870
 Red. masses --      1.3061                 1.2089                 1.2167
 Frc consts  --      0.7989                 0.7587                 0.7886
 IR Inten    --      0.0498                 4.8502                13.0022

                     46                     47                     48
                      A                      A                      A
 Frequencies --   1060.7020              1064.3794              1106.2316
 Red. masses --      1.3502                 2.6177                 2.5156
 Frc consts  --      0.8951                 1.7473                 1.8138
 IR Inten    --     20.9739                30.5929                75.4266

                     49                     50                     51
                      A                      A                      A
 Frequencies --   1166.9174              1189.2387              1202.3817
 Red. masses --      2.1644                 1.2107                 1.6285
 Frc consts  --      1.7364                 1.0089                 1.3871
 IR Inten    --      0.0986                23.7955                 0.9208

                     52                     53                     54
                      A                      A                      A
 Frequencies --   1212.2477              1226.8979              1235.1554
 Red. masses --      2.4774                 3.1077                 1.7874
 Frc consts  --      2.1450                 2.7561                 1.6066
 IR Inten    --    172.3194                18.2153                11.3077

                     55                     56                     57
                      A                      A                      A
 Frequencies --   1260.7611              1286.3914              1302.1906
 Red. masses --      2.6218                 1.8864                 2.2385
 Frc consts  --      2.4554                 1.8392                 2.2365
 IR Inten    --    208.7346                52.6477                72.8730

                     58                     59                     60
                      A                      A                      A
 Frequencies --   1334.0946              1369.5806              1408.4047
 Red. masses --      1.3084                 3.9658                 1.2654
 Frc consts  --      1.3721                 4.3829                 1.4789
 IR Inten    --      9.1689                55.8054                22.7360

                     61                     62                     63
                      A                      A                      A
 Frequencies --   1420.2763              1424.3194              1426.2076
 Red. masses --      8.6283                 2.1327                 1.2546
 Frc consts  --     10.2547                 2.5492                 1.5036
 IR Inten    --     29.3830               176.1866                14.9041

                     64                     65                     66
                      A                      A                      A
 Frequencies --   1452.1415              1476.9430              1479.5227
 Red. masses --      1.1805                 2.1005                 1.1084
 Frc consts  --      1.4667                 2.6996                 1.4295
 IR Inten    --     13.4625                36.7264                 2.9660

                     67                     68                     69
                      A                      A                      A
 Frequencies --   1485.5766              1498.6658              1505.5301
 Red. masses --      1.0589                 1.0668                 2.1706
 Frc consts  --      1.3769                 1.4117                 2.8987
 IR Inten    --      0.8582                 4.8803                58.1915

                     70                     71                     72
                      A                      A                      A
 Frequencies --   1512.8326              1568.1982              1648.2763
 Red. masses --      1.1634                 3.7603                 7.6099
 Frc consts  --      1.5687                 5.4484                12.1813
 IR Inten    --     34.9036                31.8196                44.1683

                     73                     74                     75
                      A                      A                      A
 Frequencies --   1666.1808              1701.6714              1737.6320
 Red. masses --      5.7604                 6.5459                 5.1497
 Frc consts  --      9.4222                11.1679                 9.1611
 IR Inten    --     86.4346                 9.4701                 7.1936

                     76                     77                     78
                      A                      A                      A
 Frequencies --   3062.5795              3073.2389              3140.5963
 Red. masses --      1.0360                 1.0382                 1.1027
 Frc consts  --      5.7251                 5.7772                 6.4082
 IR Inten    --     16.7288                15.9008                 3.6419

                     79                     80                     81
                      A                      A                      A
 Frequencies --   3145.6870              3154.8999              3163.5232
 Red. masses --      1.1019                 1.1029                 1.0625
 Frc consts  --      6.4245                 6.4679                 6.2651
 IR Inten    --     41.9372                16.4143                12.5340

                     82                     83                     84
                      A                      A                      A
 Frequencies --   3168.7847              3176.3283              3201.8821
 Red. masses --      1.1007                 1.0895                 1.0879
 Frc consts  --      6.5121                 6.4766                 6.5714
 IR Inten    --     16.5623                 9.1315                 5.9234

                     85                     86                     87
                      A                      A                      A
 Frequencies --   3217.1515              3224.0672              3240.4440
 Red. masses --      1.0925                 1.0920                 1.0930
 Frc consts  --      6.6623                 6.6876                 6.7623
 IR Inten    --     12.4772                 3.2499                 3.7635

                     88                     89                     90
                      A                      A                      A
 Frequencies --   3245.7553              3256.4644              3260.7753
 Red. masses --      1.0939                 1.1164                 1.0923
 Frc consts  --      6.7901                 6.9756                 6.8426
 IR Inten    --      6.7368                 8.7660                 2.7830

 - Thermochemistry -
 -------------------
 Temperature   298.150 Kelvin.  Pressure   1.00000 Atm.
 Atom     1 has atomic number  6 and mass  12.00000

 Molecular mass:   246.08114 amu.
 Principal axes and moments of inertia in atomic units:
                           1         2         3
     Eigenvalues --  2548.194196321.180558062.09340
           X            0.99968   0.02474  -0.00588
           Y           -0.02471   0.99968   0.00514
           Z            0.00601  -0.00499   0.99997
 This molecule is an asymmetric top.
 Rotational symmetry number  1.
 Warning -- assumption of classical behavior for rotation
           may cause significant error
 Rotational temperatures (Kelvin)      0.03399     0.01370     0.01074
 Rotational constants (GHZ):           0.70824     0.28551     0.22386
 Zero-point vibrational energy     686797.3 (Joules/Mol)
                                  164.14848 (Kcal/Mol)
 Warning -- explicit consideration of  25 degrees of freedom as
           vibrations may cause significant error
 Vibrational temperatures:     49.18    81.79   144.97   164.71   178.09
          (Kelvin)            228.05   259.27   280.80   332.00   353.18
                              407.77   422.82   470.35   478.07   524.44
                              549.44   604.48   619.35   660.88   694.87
                              718.12   772.81   814.80   870.74   892.13
                              952.27   975.66  1009.62  1078.95  1119.57
                             1140.58  1167.98  1184.84  1251.00  1298.98
                             1311.13  1366.17  1379.84  1395.63  1405.65
                             1417.73  1432.79  1466.00  1484.99  1509.11
                             1526.11  1531.40  1591.62  1678.93  1711.05
                             1729.96  1744.15  1765.23  1777.11  1813.95
                             1850.83  1873.56  1919.46  1970.52  2026.38
                             2043.46  2049.28  2051.99  2089.31  2124.99
                             2128.70  2137.41  2156.24  2166.12  2176.63
                             2256.28  2371.50  2397.26  2448.32  2500.06
                             4406.36  4421.70  4518.61  4525.94  4539.19
                             4551.60  4559.17  4570.02  4606.79  4628.76
                             4638.71  4662.27  4669.91  4685.32  4691.52

 Zero-point correction=                           0.261587 (Hartree/Particle)
 Thermal correction to Energy=                    0.276909
 Thermal correction to Enthalpy=                  0.277854
 Thermal correction to Gibbs Free Energy=         0.219068
 Sum of electronic and zero-point Energies=          -1115.817541
 Sum of electronic and thermal Energies=             -1115.802219
 Sum of electronic and thermal Enthalpies=           -1115.801275
 Sum of electronic and thermal Free Energies=        -1115.860061

                     E (Thermal)             CV                S
                      KCal/Mol        Cal/Mol-Kelvin    Cal/Mol-Kelvin
 Total                  173.763             60.499            123.726
 Electronic               0.000              0.000              0.000
 Translational            0.889              2.981             42.402
 Rotational               0.889              2.981             33.229
 Vibrational            171.986             54.538             48.095
 Vibration     1          0.594              1.983              5.571
 Vibration     2          0.596              1.975              4.564
 Vibration     3          0.604              1.949              3.440
 Vibration     4          0.607              1.937              3.192
 Vibration     5          0.610              1.929              3.041
 Vibration     6          0.621              1.893              2.568
 Vibration     7          0.629              1.867              2.326
 Vibration     8          0.636              1.847              2.178
 Vibration     9          0.652              1.794              1.873
 Vibration    10          0.660              1.770              1.763
 Vibration    11          0.682              1.704              1.513
 Vibration    12          0.689              1.685              1.452
 Vibration    13          0.711              1.622              1.275
 Vibration    14          0.714              1.611              1.249
 Vibration    15          0.738              1.545              1.103
 Vibration    16          0.751              1.509              1.032
 Vibration    17          0.783              1.426              0.892
 Vibration    18          0.792              1.404              0.857
 Vibration    19          0.817              1.340              0.768
 Vibration    20          0.839              1.288              0.702
 Vibration    21          0.855              1.252              0.660
 Vibration    22          0.892              1.168              0.571
 Vibration    23          0.922              1.104              0.511
 Vibration    24          0.964              1.021              0.441
 Vibration    25          0.980              0.990              0.416

 Normal termination of Gaussian 09 at Fri Feb  4 16:08:59 2022.
