 Gaussian 09, Revision D.01,
 Gaussian 09:  ES64L-G09RevD.01 24-Apr-2013

 -------------------------------------------------
 #n wB97XD/Def2TZVP scrf(smd,solvent=toluene) freq
 -------------------------------------------------

 -------------------------
 ts_claisen toluene - freq
 -------------------------
 Symbolic Z-matrix:
 Charge =  0 Multiplicity = 1

                         Standard orientation:
 ---------------------------------------------------------------------
 Center     Atomic      Atomic             Coordinates (Angstroms)
 Number     Number       Type             X           Y           Z
 ---------------------------------------------------------------------
      1          6           0       -2.243408    2.689042    0.349810
      2          6           0       -2.575649    1.358422    0.342530
      3          6           0       -1.651400    0.386691   -0.087030
      4          6           0       -0.365189    0.806290   -0.495720
      5          6           0       -0.060258    2.175630   -0.496940
      6          6           0       -0.977378    3.105981   -0.080060
      7          1           0       -2.969668    3.420762    0.681160
      8          1           0       -3.561039    1.047343    0.661110
      9          1           0        0.921862    2.473549   -0.839410
     10          1           0       -0.727717    4.159681   -0.085580
     11          6           0        0.633710   -0.160920   -0.954960
     12          6           0       -1.956841   -1.015498   -0.149960
     13          6           0        0.266129   -1.524610   -0.929240
     14          1           0        0.912508   -2.232831   -1.426430
     15          6           0       -1.053941   -1.922549   -0.584900
     16          1           0       -1.324752   -2.968509   -0.649430
     17          8           0        1.805290    0.202189   -1.264000
     18         17           0       -3.544981   -1.566957    0.319260
     19          6           0        3.107950   -0.145492    0.448590
     20          6           0        2.729399   -1.481142    0.559290
     21          1           0        3.332318   -2.206592    0.023580
     22          6           0        4.385150    0.197447   -0.238730
     23          1           0        4.697009   -0.581403   -0.932620
     24          1           0        4.280681    1.136297   -0.782120
     25          1           0        5.174440    0.336466    0.508020
     26          6           0        2.545261    0.919908    1.329710
     27          1           0        1.497030    0.767849    1.576910
     28          1           0        3.109271    0.925228    2.268600
     29          1           0        2.656281    1.900508    0.870610
     30          6           0        1.500879   -1.884831    1.014480
     31          1           0        1.251558   -2.937381    1.035440
     32          1           0        0.866109   -1.246420    1.613550
 ---------------------------------------------------------------------

 SCF Done:  E(RwB97XD) =  -1116.03410816     A.U. after   16 cycles

 The electronic state is 1-A.
 Alpha  occ. eigenvalues -- -101.69351 -19.21640 -10.34291 -10.34224 -10.33663
 Alpha  occ. eigenvalues --  -10.31419 -10.30665 -10.29393 -10.29340 -10.29017
 Alpha  occ. eigenvalues --  -10.28788 -10.28655 -10.28535 -10.28436 -10.28144
 Alpha  occ. eigenvalues --  -10.28037 -10.27851  -9.57909  -7.32540  -7.31697
 Alpha  occ. eigenvalues --   -7.31675  -1.10816  -0.99439  -0.95310  -0.93761
 Alpha  occ. eigenvalues --   -0.90987  -0.85746  -0.85401  -0.84351  -0.80104
 Alpha  occ. eigenvalues --   -0.79118  -0.72796  -0.71944  -0.71452  -0.66454
 Alpha  occ. eigenvalues --   -0.62421  -0.60413  -0.60305  -0.58149  -0.57266
 Alpha  occ. eigenvalues --   -0.55166  -0.54875  -0.54193  -0.51982  -0.51167
 Alpha  occ. eigenvalues --   -0.51002  -0.49750  -0.49375  -0.48555  -0.47593
 Alpha  occ. eigenvalues --   -0.46713  -0.46524  -0.45837  -0.44985  -0.44315
 Alpha  occ. eigenvalues --   -0.43649  -0.43406  -0.41960  -0.39286  -0.38250
 Alpha  occ. eigenvalues --   -0.36768  -0.34097  -0.33209  -0.31248  -0.26701
 Alpha virt. eigenvalues --   -0.01251   0.02792   0.05045   0.09569   0.10885
 Alpha virt. eigenvalues --    0.11530   0.11767   0.13644   0.13700   0.14228
 Alpha virt. eigenvalues --    0.16105   0.16719   0.17005   0.17901   0.18292

 Mulliken charges:
               1
     1  C   -0.125288
     2  C   -0.217935
     3  C    0.075997
     4  C   -0.002395
     5  C   -0.197302
     6  C   -0.123193
     7  H    0.138292
     8  H    0.136737
     9  H    0.153674
    10  H    0.136617
    11  C    0.229478
    12  C    0.061933
    13  C   -0.149843
    14  H    0.146136
    15  C   -0.190816
    16  H    0.142877
    17  O   -0.465155
    18  Cl  -0.112835
    19  C    0.253956
    20  C   -0.192982
    21  H    0.131660
    22  C   -0.366088
    23  H    0.134051
    24  H    0.150817
    25  H    0.143550
    26  C   -0.392681
    27  H    0.144000
    28  H    0.157884
    29  H    0.140982
    30  C   -0.293209
    31  H    0.167249
    32  H    0.183832
 Sum of Mulliken charges =   0.00000

 Dipole moment (field-independent basis, Debye):
    X=              3.2078    Y=             -0.1572    Z=              2.3004  Tot=              3.9505
 Quadrupole moment (field-independent basis, Debye-Ang):
   XX=           -102.2534   YY=            -95.3734   ZZ=           -111.8995
   XY=             -4.4924   XZ=              2.5671   YZ=              3.0564

  Exact polarizability: 340.759  -8.768 266.355   3.313   3.318 156.863
 Approx polarizability: 294.072   2.863 258.333  -6.497   0.887 177.457

 ******    1 imaginary frequencies (negative Signs) ******

                      1                      2                      3
                      A                      A                      A
 Frequencies --   -355.2186                51.4069                72.2738
 Red. masses --      8.5070                 4.0510                 4.5323
 Frc consts  --      0.6324                 0.0063                 0.0139
 IR Inten    --    121.2601                 0.0088                 0.6023

                      4                      5                      6
                      A                      A                      A
 Frequencies --     80.0559               133.4047               161.5524
 Red. masses --      5.2817                 4.0550                 2.7779
 Frc consts  --      0.0199                 0.0425                 0.0427
 IR Inten    --      1.7133                 0.9732                22.7349

                      7                      8                      9
                      A                      A                      A
 Frequencies --    177.9645               192.1319               210.3124
 Red. masses --      1.2630                 3.2068                 4.8001
 Frc consts  --      0.0236                 0.0697                 0.1251
 IR Inten    --      8.6457                 0.9524                17.4653

                     10                     11                     12
                      A                      A                      A
 Frequencies --    217.8380               243.6583               270.1739
 Red. masses --      6.8650                 1.2758                 4.7066
 Frc consts  --      0.1919                 0.0446                 0.2024
 IR Inten    --      2.8218                 3.5496                20.6035

                     13                     14                     15
                      A                      A                      A
 Frequencies --    305.8014               339.4542               350.5759
 Red. masses --      2.7015                 4.7361                 3.3559
 Frc consts  --      0.1488                 0.3215                 0.2430
 IR Inten    --     15.5963                21.7285                 7.8846

                     16                     17                     18
                      A                      A                      A
 Frequencies --    365.4198               390.7905               424.7963
 Red. masses --      4.5391                 6.4872                 2.3662
 Frc consts  --      0.3571                 0.5837                 0.2516
 IR Inten    --      1.3572                 0.9051                 1.5992

                     19                     20                     21
                      A                      A                      A
 Frequencies --    438.9335               467.0386               490.2657
 Red. masses --      2.8109                 2.4098                 3.9359
 Frc consts  --      0.3191                 0.3097                 0.5574
 IR Inten    --      4.8006                 4.6948                 0.3402

                     22                     23                     24
                      A                      A                      A
 Frequencies --    492.3156               537.1351               546.7444
 Red. masses --      6.1392                 5.9040                 2.7584
 Frc consts  --      0.8767                 1.0036                 0.4858
 IR Inten    --      2.4753                 5.4741                 1.7102

                     25                     26                     27
                      A                      A                      A
 Frequencies --    588.7342               621.1572               669.1754
 Red. masses --      5.2481                 3.2719                 6.9743
 Frc consts  --      1.0717                 0.7438                 1.8401
 IR Inten    --      5.3187                 1.2669                30.2685

                     28                     29                     30
                      A                      A                      A
 Frequencies --    713.9926               746.1936               752.5997
 Red. masses --      3.0081                 1.4232                 5.4067
 Frc consts  --      0.9035                 0.4669                 1.8043
 IR Inten    --     15.4211                16.1101                16.0327

                     31                     32                     33
                      A                      A                      A
 Frequencies --    794.7190               797.3132               804.7814
 Red. masses --      2.4180                 1.8773                 3.8999
 Frc consts  --      0.8998                 0.7031                 1.4882
 IR Inten    --     31.0826                31.8179                10.3594

                     34                     35                     36
                      A                      A                      A
 Frequencies --    834.0932               874.1315               907.2816
 Red. masses --      2.5284                 1.2937                 1.8372
 Frc consts  --      1.0364                 0.5824                 0.8910
 IR Inten    --      9.9836               116.4754                 2.2782

                     37                     38                     39
                      A                      A                      A
 Frequencies --    927.8823               948.4287               971.7670
 Red. masses --      1.3338                 1.2515                 5.3374
 Frc consts  --      0.6766                 0.6633                 2.9697
 IR Inten    --     45.6951                 1.1198                37.1156

                     40                     41                     42
                      A                      A                      A
 Frequencies --    986.4187              1001.7440              1014.6703
 Red. masses --      1.3163                 1.3657                 1.2646
 Frc consts  --      0.7546                 0.8074                 0.7671
 IR Inten    --      9.6054                 1.1251                 3.5122

                     43                     44                     45
                      A                      A                      A
 Frequencies --   1022.2109              1027.1050              1035.3040
 Red. masses --      1.3220                 1.3709                 1.2817
 Frc consts  --      0.8139                 0.8521                 0.8094
 IR Inten    --      1.4622                24.8122                 5.2767

                     46                     47                     48
                      A                      A                      A
 Frequencies --   1060.4673              1085.6348              1090.6516
 Red. masses --      2.4149                 1.5925                 2.0738
 Frc consts  --      1.6001                 1.1058                 1.4534
 IR Inten    --     27.5496               105.3449                 7.1619

                     49                     50                     51
                      A                      A                      A
 Frequencies --   1099.6748              1144.9402              1173.9985
 Red. masses --      1.5043                 1.9665                 1.3798
 Frc consts  --      1.0718                 1.5189                 1.1205
 IR Inten    --     17.7775                13.5310                11.5709

                     52                     53                     54
                      A                      A                      A
 Frequencies --   1179.2319              1225.4357              1266.4379
 Red. masses --      1.4147                 1.6714                 1.8798
 Frc consts  --      1.1591                 1.4788                 1.7763
 IR Inten    --      6.0496                28.2740                10.8806

                     55                     56                     57
                      A                      A                      A
 Frequencies --   1270.6673              1303.9334              1331.9643
 Red. masses --      2.2089                 1.7441                 4.2658
 Frc consts  --      2.1013                 1.7471                 4.4589
 IR Inten    --     17.2848                36.4186                 4.4298

                     58                     59                     60
                      A                      A                      A
 Frequencies --   1352.9219              1374.9822              1396.1917
 Red. masses --      1.9661                 1.5353                 5.6273
 Frc consts  --      2.1203                 1.7101                 6.4631
 IR Inten    --     20.9928                23.6995                14.6168

                     61                     62                     63
                      A                      A                      A
 Frequencies --   1414.2800              1429.4150              1433.7630
 Red. masses --      1.3277                 1.9849                 1.7588
 Frc consts  --      1.5647                 2.3895                 2.1302
 IR Inten    --     15.3376                19.1489                14.5699

                     64                     65                     66
                      A                      A                      A
 Frequencies --   1464.5773              1466.7185              1486.4389
 Red. masses --      1.0740                 1.2623                 1.0903
 Frc consts  --      1.3573                 1.5999                 1.4194
 IR Inten    --      5.8939                61.9812                11.8450

                     67                     68                     69
                      A                      A                      A
 Frequencies --   1488.6946              1496.4415              1515.8977
 Red. masses --      2.0662                 2.2581                 1.4185
 Frc consts  --      2.6980                 2.9793                 1.9205
 IR Inten    --     17.8037                22.4552                85.9804

                     70                     71                     72
                      A                      A                      A
 Frequencies --   1526.7119              1553.2837              1593.5085
 Red. masses --      1.7992                 2.5135                 3.8521
 Frc consts  --      2.4709                 3.5729                 5.7631
 IR Inten    --     72.1341                23.0929                98.5045

                     73                     74                     75
                      A                      A                      A
 Frequencies --   1642.5451              1656.4112              1687.2433
 Red. masses --      5.0958                 6.5653                 6.3699
 Frc consts  --      8.1002                10.6131                10.6841
 IR Inten    --    222.2467                39.7629                11.4454

                     76                     77                     78
                      A                      A                      A
 Frequencies --   3048.2115              3056.5093              3128.7570
 Red. masses --      1.0461                 1.0481                 1.0885
 Frc consts  --      5.7270                 5.7689                 6.2779
 IR Inten    --     15.7542                22.9404                 8.0411

                     79                     80                     81
                      A                      A                      A
 Frequencies --   3136.2643              3168.2603              3176.4863
 Red. masses --      1.0872                 1.1038                 1.0886
 Frc consts  --      6.3009                 6.5281                 6.4717
 IR Inten    --      4.7745                11.6094                 3.2474

                     82                     83                     84
                      A                      A                      A
 Frequencies --   3184.7932              3190.9457              3201.5570
 Red. masses --      1.0761                 1.0863                 1.0872
 Frc consts  --      6.4308                 6.5169                 6.5657
 IR Inten    --     27.1496                 6.6635                 4.7902

                     85                     86                     87
                      A                      A                      A
 Frequencies --   3216.0940              3218.2833              3235.2666
 Red. masses --      1.0920                 1.0913                 1.0926
 Frc consts  --      6.6548                 6.6594                 6.7380
 IR Inten    --     12.9896                 6.0508                 4.2160

                     88                     89                     90
                      A                      A                      A
 Frequencies --   3238.1102              3244.5450              3271.9905
 Red. masses --      1.0950                 1.0924                 1.1164
 Frc consts  --      6.7645                 6.7755                 7.0422
 IR Inten    --     10.7491                 2.5842                 1.6073

 - Thermochemistry -
 -------------------
 Temperature   298.150 Kelvin.  Pressure   1.00000 Atm.
 Atom     1 has atomic number  6 and mass  12.00000

 Molecular mass:   246.08114 amu.
 Principal axes and moments of inertia in atomic units:
                           1         2         3
     Eigenvalues --  2629.782655461.464107219.69313
           X            0.99977  -0.02110   0.00399
           Y            0.02105   0.99971   0.01189
           Z           -0.00424  -0.01180   0.99992
 This molecule is an asymmetric top.
 Rotational symmetry number  1.
 Warning -- assumption of classical behavior for rotation
           may cause significant error
 Rotational temperatures (Kelvin)      0.03294     0.01586     0.01200
 Rotational constants (GHZ):           0.68627     0.33045     0.24997
    1 imaginary frequencies ignored.
 Zero-point vibrational energy     681446.1 (Joules/Mol)
                                  162.86952 (Kcal/Mol)
 Warning -- explicit consideration of  24 degrees of freedom as
           vibrations may cause significant error
 Vibrational temperatures:     73.96   103.99   115.18   191.94   232.44
          (Kelvin)            256.05   276.43   302.59   313.42   350.57
                              388.72   439.98   488.40   504.40   525.76
                              562.26   611.19   631.53   671.96   705.38
                              708.33   772.82   786.64   847.06   893.71
                              962.79  1027.27  1073.60  1082.82  1143.42
                             1147.15  1157.90  1200.07  1257.68  1305.37
                             1335.01  1364.58  1398.15  1419.23  1441.28
                             1459.88  1470.73  1477.77  1489.57  1525.77
                             1561.98  1569.20  1582.18  1647.31  1689.12
                             1696.65  1763.13  1822.12  1828.20  1876.07
                             1916.40  1946.55  1978.29  2008.81  2034.83
                             2056.61  2062.86  2107.20  2110.28  2138.65
                             2141.90  2153.04  2181.04  2196.60  2234.83
                             2292.70  2363.25  2383.20  2427.56  4385.69
                             4397.63  4501.58  4512.38  4558.41  4570.25
                             4582.20  4591.05  4606.32  4627.24  4630.39
                             4654.82  4658.91  4668.17  4707.66

 Zero-point correction=                           0.259549 (Hartree/Particle)
 Thermal correction to Energy=                    0.274562
 Thermal correction to Enthalpy=                  0.275506
 Thermal correction to Gibbs Free Energy=         0.217967
 Sum of electronic and zero-point Energies=          -1115.774559
 Sum of electronic and thermal Energies=             -1115.759546
 Sum of electronic and thermal Enthalpies=           -1115.758602
 Sum of electronic and thermal Free Energies=        -1115.816142

                     E (Thermal)             CV                S
                      KCal/Mol        Cal/Mol-Kelvin    Cal/Mol-Kelvin
 Total                  172.290             59.734            121.102
 Electronic               0.000              0.000              0.000
 Translational            0.889              2.981             42.402
 Rotational               0.889              2.981             33.005
 Vibrational            170.513             53.772             45.695
 Vibration     1          0.596              1.977              4.763
 Vibration     2          0.598              1.967              4.090
 Vibration     3          0.600              1.963              3.890
 Vibration     4          0.613              1.920              2.896
 Vibration     5          0.622              1.890              2.532
 Vibration     6          0.628              1.869              2.350
 Vibration     7          0.634              1.851              2.207
 Vibration     8          0.642              1.825              2.041
 Vibration     9          0.646              1.814              1.977
 Vibration    10          0.659              1.773              1.776
 Vibration    11          0.674              1.728              1.595
 Vibration    12          0.696              1.663              1.385
 Vibration    13          0.719              1.597              1.215
 Vibration    14          0.727              1.574              1.164
 Vibration    15          0.739              1.543              1.099
 Vibration    16          0.758              1.490              0.997
 Vibration    17          0.787              1.416              0.876
 Vibration    18          0.799              1.385              0.830
 Vibration    19          0.824              1.323              0.746
 Vibration    20          0.846              1.272              0.683
 Vibration    21          0.848              1.267              0.678
 Vibration    22          0.892              1.168              0.571
 Vibration    23          0.902              1.147              0.551
 Vibration    24          0.946              1.056              0.469

 Normal termination of Gaussian 09 at Fri Feb  4 16:43:54 2022.
