 Gaussian 09, Revision D.01,
 Gaussian 09:  ES64L-G09RevD.01 24-Apr-2013

 ----------------------------------------------------------------------
 #n wB97XD/Def2TZVP scrf(smd,solvent=toluene) opt=(calcfc,ts,noeigentes
 t)
 ----------------------------------------------------------------------

 ------------------------
 ts_claisen toluene - opt
 ------------------------
 Symbolic Z-matrix:
 Charge =  0 Multiplicity = 1

 SCF Done:  E(RwB97XD) =  -1116.03180135     A.U. after   16 cycles

  Exact polarizability:   0.000   0.000   0.000   0.000   0.000   0.000
 Approx polarizability: 292.005   0.191 261.163  -8.334   0.320 175.185

 SCF Done:  E(RwB97XD) =  -1116.03402210     A.U. after   13 cycles
 SCF Done:  E(RwB97XD) =  -1116.03410405     A.U. after   12 cycles
 SCF Done:  E(RwB97XD) =  -1116.03410710     A.U. after    9 cycles
 SCF Done:  E(RwB97XD) =  -1116.03410814     A.U. after    8 cycles
 SCF Done:  E(RwB97XD) =  -1116.03410816     A.U. after    6 cycles
 Optimization completed.
    -- Stationary point found.

                         Standard orientation:
 ---------------------------------------------------------------------
 Center     Atomic      Atomic             Coordinates (Angstroms)
 Number     Number       Type             X           Y           Z
 ---------------------------------------------------------------------
      1          6           0       -2.243406    2.689040    0.349808
      2          6           0       -2.575647    1.358424    0.342529
      3          6           0       -1.651397    0.386692   -0.087026
      4          6           0       -0.365188    0.806285   -0.495717
      5          6           0       -0.060258    2.175632   -0.496935
      6          6           0       -0.977382    3.105978   -0.080056
      7          1           0       -2.969671    3.420763    0.681161
      8          1           0       -3.561038    1.047345    0.661109
      9          1           0        0.921861    2.473550   -0.839411
     10          1           0       -0.727717    4.159684   -0.085577
     11          6           0        0.633708   -0.160923   -0.954965
     12          6           0       -1.956837   -1.015504   -0.149961
     13          6           0        0.266125   -1.524612   -0.929238
     14          1           0        0.912507   -2.232831   -1.426429
     15          6           0       -1.053936   -1.922551   -0.584901
     16          1           0       -1.324746   -2.968510   -0.649433
     17          8           0        1.805292    0.202194   -1.263998
     18         17           0       -3.544984   -1.566955    0.319256
     19          6           0        3.107946   -0.145493    0.448587
     20          6           0        2.729401   -1.481141    0.559291
     21          1           0        3.332320   -2.206585    0.023584
     22          6           0        4.385147    0.197445   -0.238733
     23          1           0        4.697011   -0.581404   -0.932616
     24          1           0        4.280679    1.136298   -0.782122
     25          1           0        5.174438    0.336470    0.508016
     26          6           0        2.545261    0.919908    1.329710
     27          1           0        1.497034    0.767850    1.576914
     28          1           0        3.109271    0.925228    2.268605
     29          1           0        2.656281    1.900512    0.870609
     30          6           0        1.500878   -1.884828    1.014476
     31          1           0        1.251557   -2.937383    1.035445
     32          1           0        0.866114   -1.246423    1.613551
 ---------------------------------------------------------------------

 The electronic state is 1-A.
 Alpha  occ. eigenvalues -- -101.69351 -19.21640 -10.34291 -10.34224 -10.33663
 Alpha  occ. eigenvalues --  -10.31419 -10.30665 -10.29393 -10.29340 -10.29017
 Alpha  occ. eigenvalues --  -10.28788 -10.28655 -10.28535 -10.28436 -10.28144
 Alpha  occ. eigenvalues --  -10.28037 -10.27851  -9.57909  -7.32540  -7.31697
 Alpha  occ. eigenvalues --   -7.31675  -1.10816  -0.99439  -0.95310  -0.93761
 Alpha  occ. eigenvalues --   -0.90987  -0.85746  -0.85401  -0.84351  -0.80104
 Alpha  occ. eigenvalues --   -0.79118  -0.72796  -0.71944  -0.71452  -0.66454
 Alpha  occ. eigenvalues --   -0.62421  -0.60413  -0.60304  -0.58149  -0.57266
 Alpha  occ. eigenvalues --   -0.55166  -0.54875  -0.54193  -0.51982  -0.51167
 Alpha  occ. eigenvalues --   -0.51002  -0.49750  -0.49375  -0.48555  -0.47593
 Alpha  occ. eigenvalues --   -0.46713  -0.46524  -0.45837  -0.44985  -0.44315
 Alpha  occ. eigenvalues --   -0.43649  -0.43406  -0.41960  -0.39286  -0.38250
 Alpha  occ. eigenvalues --   -0.36768  -0.34097  -0.33209  -0.31248  -0.26701
 Alpha virt. eigenvalues --   -0.01251   0.02792   0.05045   0.09569   0.10885
 Alpha virt. eigenvalues --    0.11530   0.11767   0.13644   0.13700   0.14228
 Alpha virt. eigenvalues --    0.16105   0.16720   0.17006   0.17901   0.18292

 Mulliken charges:
               1
     1  C   -0.125286
     2  C   -0.217936
     3  C    0.075996
     4  C   -0.002397
     5  C   -0.197306
     6  C   -0.123191
     7  H    0.138292
     8  H    0.136737
     9  H    0.153676
    10  H    0.136617
    11  C    0.229481
    12  C    0.061936
    13  C   -0.149842
    14  H    0.146135
    15  C   -0.190814
    16  H    0.142877
    17  O   -0.465157
    18  Cl  -0.112836
    19  C    0.253958
    20  C   -0.192981
    21  H    0.131660
    22  C   -0.366089
    23  H    0.134051
    24  H    0.150817
    25  H    0.143549
    26  C   -0.392683
    27  H    0.144001
    28  H    0.157884
    29  H    0.140982
    30  C   -0.293210
    31  H    0.167249
    32  H    0.183832
 Sum of Mulliken charges =   0.00000

 Dipole moment (field-independent basis, Debye):
    X=              3.2078    Y=             -0.1572    Z=              2.3004  Tot=              3.9505
 Quadrupole moment (field-independent basis, Debye-Ang):
   XX=           -102.2535   YY=            -95.3734   ZZ=           -111.8994
   XY=             -4.4925   XZ=              2.5671   YZ=              3.0564

 Normal termination of Gaussian 09 at Wed Feb  2 19:01:08 2022.
