 Gaussian 09, Revision D.01,
 Gaussian 09:  ES64L-G09RevD.01 24-Apr-2013

 ----------------------------------------------------------------
 #n wB97XD/Gen scrf(smd,solvent=toluene) opt int=(grid=ultrafine)
 ----------------------------------------------------------------

 -------------------------------------------
 dieneophile diels-alder toluene 2 h2o - opt
 -------------------------------------------
 Symbolic Z-matrix:
 Charge =  0 Multiplicity = 1

 SCF Done:  E(RwB97XD) =  -551.684314169     A.U. after   13 cycles
 SCF Done:  E(RwB97XD) =  -551.684314869     A.U. after    8 cycles
 SCF Done:  E(RwB97XD) =  -551.684315105     A.U. after    8 cycles
 SCF Done:  E(RwB97XD) =  -551.684315222     A.U. after    8 cycles
 SCF Done:  E(RwB97XD) =  -551.684315331     A.U. after    8 cycles
 SCF Done:  E(RwB97XD) =  -551.684315502     A.U. after    8 cycles
 SCF Done:  E(RwB97XD) =  -551.684315607     A.U. after    8 cycles
 SCF Done:  E(RwB97XD) =  -551.684315687     A.U. after    8 cycles
 SCF Done:  E(RwB97XD) =  -551.684315810     A.U. after    8 cycles
 SCF Done:  E(RwB97XD) =  -551.684315902     A.U. after    8 cycles
 SCF Done:  E(RwB97XD) =  -551.684315944     A.U. after    6 cycles
 SCF Done:  E(RwB97XD) =  -551.684315984     A.U. after    6 cycles
 SCF Done:  E(RwB97XD) =  -551.684316049     A.U. after    6 cycles
 SCF Done:  E(RwB97XD) =  -551.684316137     A.U. after    7 cycles
 SCF Done:  E(RwB97XD) =  -551.684316223     A.U. after    8 cycles
 SCF Done:  E(RwB97XD) =  -551.684316264     A.U. after    7 cycles
 Optimization completed.
    -- Stationary point found.

                         Standard orientation:
 ---------------------------------------------------------------------
 Center     Atomic      Atomic             Coordinates (Angstroms)
 Number     Number       Type             X           Y           Z
 ---------------------------------------------------------------------
      1          6           0       -1.130232    0.313130    0.025137
      2          6           0       -0.658725   -1.106665    0.021206
      3          6           0        0.665437   -1.102293   -0.002886
      4          6           0        1.130640    0.319984   -0.016686
      5          1           0       -1.347995   -1.937623    0.036168
      6          1           0        1.360245   -1.928721   -0.012981
      7          6           0       -0.020466    2.554063   -0.006083
      8          1           0        1.009693    2.902315   -0.024750
      9          1           0       -0.544005    2.922365   -0.887977
     10          1           0       -0.514417    2.932560    0.888375
     11          7           0       -0.003247    1.109647    0.001847
     12          8           0        2.266007    0.730431   -0.039770
     13          8           0       -2.265660    0.724781    0.044259
     14          8           0        3.961734   -1.591659    0.088248
     15          1           0        4.735303   -1.563681   -0.476781
     16          1           0        3.560843   -0.712700    0.027998
     17          8           0       -3.946467   -1.606397   -0.104845
     18          1           0       -3.552471   -0.724713   -0.037757
     19          1           0       -4.729306   -1.583886    0.447509
 ---------------------------------------------------------------------

 The electronic state is 1-A.
 Alpha  occ. eigenvalues --  -19.27024 -19.26993 -19.23626 -19.23619 -14.49942
 Alpha  occ. eigenvalues --  -10.42943 -10.42817 -10.32861 -10.32806 -10.32762
 Alpha  occ. eigenvalues --   -1.20334  -1.18385  -1.09933  -1.09862  -1.08729
 Alpha  occ. eigenvalues --   -0.94679  -0.82422  -0.78749  -0.72136  -0.66523
 Alpha  occ. eigenvalues --   -0.61706  -0.61118  -0.60864  -0.60013  -0.57191
 Alpha  occ. eigenvalues --   -0.55295  -0.54538  -0.52903  -0.51557  -0.51021
 Alpha  occ. eigenvalues --   -0.49572  -0.46708  -0.46477  -0.40610  -0.40106
 Alpha  occ. eigenvalues --   -0.39368  -0.39194  -0.37620  -0.37018
 Alpha virt. eigenvalues --   -0.03869   0.04541   0.05964   0.06080   0.06928
 Alpha virt. eigenvalues --    0.07972   0.08497   0.09201   0.09680   0.10136
 Alpha virt. eigenvalues --    0.11533   0.11697   0.11791   0.11943   0.12398

 Mulliken charges:
               1
     1  C    0.268686
     2  C   -0.077109
     3  C   -0.069076
     4  C    0.304931
     5  H    0.248071
     6  H    0.248532
     7  C   -0.364461
     8  H    0.181487
     9  H    0.170723
    10  H    0.169277
    11  N   -0.046216
    12  O   -0.493788
    13  O   -0.482245
    14  O   -0.709295
    15  H    0.344218
    16  H    0.336240
    17  O   -0.708421
    18  H    0.334220
    19  H    0.344228
 Sum of Mulliken charges =   0.00000

 Dipole moment (field-independent basis, Debye):
    X=              0.0051    Y=              2.3721    Z=             -0.0052  Tot=              2.3721
 Quadrupole moment (field-independent basis, Debye-Ang):
   XX=            -64.8643   YY=            -58.6269   ZZ=            -59.0795
   XY=              0.1786   XZ=            -11.1215   YZ=             -0.0719

 Normal termination of Gaussian 09 at Mon Feb 21 16:21:04 2022.
