 Gaussian 09, Revision D.01,
 Gaussian 09:  ES64L-G09RevD.01 24-Apr-2013

 -----------------------------------------------------------------
 #n wB97XD/Gen scrf(smd,solvent=toluene) freq int=(grid=ultrafine)
 -----------------------------------------------------------------

 --------------------------------------
 dieneophile diels-alder toluene - freq
 --------------------------------------
 Symbolic Z-matrix:
 Charge =  0 Multiplicity = 1

                         Standard orientation:
 ---------------------------------------------------------------------
 Center     Atomic      Atomic             Coordinates (Angstroms)
 Number     Number       Type             X           Y           Z
 ---------------------------------------------------------------------
      1          6           0        1.130229    0.313131   -0.025139
      2          6           0        0.658729   -1.106669   -0.021209
      3          6           0       -0.665441   -1.102290    0.002891
      4          6           0       -1.130641    0.319980    0.016691
      5          1           0        1.348000   -1.937618   -0.036169
      6          1           0       -1.360240   -1.928720    0.012981
      7          6           0        0.020467    2.554061    0.006081
      8          1           0       -1.009693    2.902320    0.024751
      9          1           0        0.543997    2.922371    0.887981
     10          1           0        0.514417    2.932561   -0.888379
     11          7           0        0.003248    1.109651   -0.001849
     12          8           0       -2.266012    0.730429    0.039771
     13          8           0        2.265658    0.724782   -0.044259
     14          8           0       -3.961730   -1.591662   -0.088249
     15          1           0       -4.735300   -1.563682    0.476781
     16          1           0       -3.560841   -0.712701   -0.027999
     17          8           0        3.946470   -1.606397    0.104841
     18          1           0        3.552469   -0.724707    0.037761
     19          1           0        4.729310   -1.583887   -0.447509
 ---------------------------------------------------------------------

 SCF Done:  E(RwB97XD) =  -551.684316263     A.U. after   13 cycles

 The electronic state is 1-A.
 Alpha  occ. eigenvalues --  -19.27024 -19.26993 -19.23626 -19.23619 -14.49942
 Alpha  occ. eigenvalues --  -10.42944 -10.42817 -10.32861 -10.32806 -10.32762
 Alpha  occ. eigenvalues --   -1.20334  -1.18385  -1.09933  -1.09862  -1.08729
 Alpha  occ. eigenvalues --   -0.94679  -0.82422  -0.78749  -0.72136  -0.66523
 Alpha  occ. eigenvalues --   -0.61706  -0.61118  -0.60864  -0.60013  -0.57191
 Alpha  occ. eigenvalues --   -0.55295  -0.54538  -0.52903  -0.51557  -0.51021
 Alpha  occ. eigenvalues --   -0.49572  -0.46708  -0.46476  -0.40610  -0.40106
 Alpha  occ. eigenvalues --   -0.39368  -0.39194  -0.37620  -0.37018
 Alpha virt. eigenvalues --   -0.03869   0.04541   0.05964   0.06080   0.06928
 Alpha virt. eigenvalues --    0.07972   0.08497   0.09201   0.09680   0.10136
 Alpha virt. eigenvalues --    0.11533   0.11697   0.11791   0.11943   0.12398

 Mulliken charges:
               1
     1  C    0.268686
     2  C   -0.077106
     3  C   -0.069077
     4  C    0.304930
     5  H    0.248073
     6  H    0.248532
     7  C   -0.364462
     8  H    0.181487
     9  H    0.170723
    10  H    0.169277
    11  N   -0.046215
    12  O   -0.493789
    13  O   -0.482247
    14  O   -0.709295
    15  H    0.344219
    16  H    0.336239
    17  O   -0.708425
    18  H    0.334223
    19  H    0.344228
 Sum of Mulliken charges =   0.00000

 Dipole moment (field-independent basis, Debye):
    X=             -0.0052    Y=              2.3720    Z=              0.0052  Tot=              2.3720
 Quadrupole moment (field-independent basis, Debye-Ang):
   XX=            -64.8644   YY=            -58.6270   ZZ=            -59.0795
   XY=             -0.1787   XZ=            -11.1214   YZ=              0.0719

  Exact polarizability: 133.710   0.663  95.564  -1.646   0.095  62.576
 Approx polarizability: 128.505   0.467  85.911  -2.412   0.053  65.113

                      1                      2                      3
                      A                      A                      A
 Frequencies --     19.6101                32.0973                51.1699
 Red. masses --      4.7657                 9.1832                 6.8124
 Frc consts  --      0.0011                 0.0056                 0.0105
 IR Inten    --      1.5753                 1.5805                 0.9603

                      4                      5                      6
                      A                      A                      A
 Frequencies --     70.5443                82.6545               136.6020
 Red. masses --      1.0409                 6.9132                 4.4400
 Frc consts  --      0.0031                 0.0278                 0.0488
 IR Inten    --      0.0193                33.3333                 4.6415

                      7                      8                      9
                      A                      A                      A
 Frequencies --    140.7999               145.7947               153.1064
 Red. masses --      4.8255                 2.4524                 1.3859
 Frc consts  --      0.0564                 0.0307                 0.0191
 IR Inten    --      2.7380                59.5993                56.3466

                     10                     11                     12
                      A                      A                      A
 Frequencies --    159.1360               179.7823               287.9942
 Red. masses --      1.2305                 4.1545                 3.4723
 Frc consts  --      0.0184                 0.0791                 0.1697
 IR Inten    --    184.4837                 9.1542                33.8394

                     13                     14                     15
                      A                      A                      A
 Frequencies --    302.7292               354.8931               359.6689
 Red. masses --      3.6632                 1.0864                 1.0875
 Frc consts  --      0.1978                 0.0806                 0.0829
 IR Inten    --      3.6236               168.7075               160.7144

                     16                     17                     18
                      A                      A                      A
 Frequencies --    412.4560               553.2196               563.4853
 Red. masses --      7.0506                 1.0896                 1.0809
 Frc consts  --      0.7067                 0.1965                 0.2022
 IR Inten    --     20.6817               316.1427                58.4228

                     19                     20                     21
                      A                      A                      A
 Frequencies --    594.9217               627.5015               658.1139
 Red. masses --      3.6135                 8.0940                 2.1246
 Frc consts  --      0.7535                 1.8778                 0.5422
 IR Inten    --     17.2314                 0.6588                 2.0754

                     22                     23                     24
                      A                      A                      A
 Frequencies --    716.6073               756.6363               802.0437
 Red. masses --      7.2750                 5.6783                 7.1404
 Frc consts  --      2.2011                 1.9153                 2.7062
 IR Inten    --     55.3792                 0.1323                 0.0260

                     25                     26                     27
                      A                      A                      A
 Frequencies --    880.5127               975.5355              1026.8378
 Red. masses --      2.0520                 2.0907                 1.3232
 Frc consts  --      0.9373                 1.1723                 0.8220
 IR Inten    --     93.8089                44.5890                 0.0019

                     28                     29                     30
                      A                      A                      A
 Frequencies --   1081.9733              1143.7971              1162.6144
 Red. masses --      1.6383                 2.5269                 1.3047
 Frc consts  --      1.1300                 1.9477                 1.0390
 IR Inten    --     17.9129                43.7291                 0.7198

                     31                     32                     33
                      A                      A                      A
 Frequencies --   1172.4623              1305.2879              1348.5056
 Red. masses --      2.2885                 3.3261                 1.7100
 Frc consts  --      1.8535                 3.3389                 1.8321
 IR Inten    --      1.0416                77.0286                 3.6724

                     34                     35                     36
                      A                      A                      A
 Frequencies --   1446.7823              1486.4851              1493.9913
 Red. masses --      1.4950                 1.0386                 1.8561
 Frc consts  --      1.8437                 1.3521                 2.4409
 IR Inten    --     49.5422                15.9034               182.0735

                     37                     38                     39
                      A                      A                      A
 Frequencies --   1514.9038              1635.0026              1637.6832
 Red. masses --      1.4957                 1.0836                 1.0806
 Frc consts  --      2.0225                 1.7067                 1.7075
 IR Inten    --     82.6971               158.6278                82.3940

                     40                     41                     42
                      A                      A                      A
 Frequencies --   1687.5210              1784.3955              1863.9109
 Red. masses --      6.7109                11.1900                11.3778
 Frc consts  --     11.2598                20.9924                23.2894
 IR Inten    --      4.8765              1343.2540                 3.7716

                     43                     44                     45
                      A                      A                      A
 Frequencies --   3076.3884              3151.3498              3181.8632
 Red. masses --      1.0337                 1.1067                 1.1040
 Frc consts  --      5.7641                 6.4753                 6.5853
 IR Inten    --     27.5392                10.0302                 0.6413

                     46                     47                     48
                      A                      A                      A
 Frequencies --   3254.1731              3273.0616              3717.5055
 Red. masses --      1.0913                 1.1114                 1.0567
 Frc consts  --      6.8090                 7.0152                 8.6039
 IR Inten    --     11.9655                 8.1507               557.2007

                     49                     50                     51
                      A                      A                      A
 Frequencies --   3721.4275              3925.5728              3925.9801
 Red. masses --      1.0563                 1.0721                 1.0723
 Frc consts  --      8.6186                 9.7340                 9.7379
 IR Inten    --    379.2211               226.4564                48.0375

 - Thermochemistry -
 -------------------
 Temperature   298.150 Kelvin.  Pressure   1.00000 Atm.
 Atom     1 has atomic number  6 and mass  12.00000

 Molecular mass:   147.05316 amu.
 Principal axes and moments of inertia in atomic units:
                           1         2         3
     Eigenvalues --   955.768332799.416033738.20805
           X            0.99999   0.00011  -0.00535
           Y           -0.00011   1.00000   0.00023
           Z            0.00535  -0.00023   0.99999
 This molecule is an asymmetric top.
 Rotational symmetry number  1.
 Warning -- assumption of classical behavior for rotation
           may cause significant error
 Rotational temperatures (Kelvin)      0.09062     0.03094     0.02317
 Rotational constants (GHZ):           1.88826     0.64468     0.48278
 Zero-point vibrational energy     383026.9 (Joules/Mol)
                                   91.54562 (Kcal/Mol)
 Warning -- explicit consideration of  19 degrees of freedom as
           vibrations may cause significant error
 Vibrational temperatures:     28.21    46.18    73.62   101.50   118.92
          (Kelvin)            196.54   202.58   209.77   220.29   228.96
                              258.67   414.36   435.56   510.61   517.48
                              593.43   795.96   810.73   855.96   902.83
                              946.88  1031.04  1088.63  1153.96  1266.86
                             1403.58  1477.39  1556.72  1645.67  1672.74
                             1686.91  1878.02  1940.20  2081.59  2138.72
                             2149.52  2179.61  2352.40  2356.26  2427.96
                             2567.34  2681.75  4426.23  4534.08  4577.99
                             4682.02  4709.20  5348.65  5354.30  5648.02
                             5648.60

 Zero-point correction=                           0.145887 (Hartree/Particle)
 Thermal correction to Energy=                    0.159931
 Thermal correction to Enthalpy=                  0.160875
 Thermal correction to Gibbs Free Energy=         0.102760
 Sum of electronic and zero-point Energies=           -551.538429
 Sum of electronic and thermal Energies=              -551.524385
 Sum of electronic and thermal Enthalpies=            -551.523441
 Sum of electronic and thermal Free Energies=         -551.581556

                     E (Thermal)             CV                S
                      KCal/Mol        Cal/Mol-Kelvin    Cal/Mol-Kelvin
 Total                  100.358             45.542            122.314
 Electronic               0.000              0.000              0.000
 Translational            0.889              2.981             40.868
 Rotational               0.889              2.981             30.682
 Vibrational             98.581             39.581             50.764
 Vibration     1          0.593              1.986              6.673
 Vibration     2          0.594              1.983              5.695
 Vibration     3          0.595              1.977              4.772
 Vibration     4          0.598              1.968              4.138
 Vibration     5          0.600              1.961              3.827
 Vibration     6          0.614              1.917              2.851
 Vibration     7          0.615              1.912              2.793
 Vibration     8          0.617              1.907              2.726
 Vibration     9          0.619              1.899              2.633
 Vibration    10          0.621              1.892              2.560
 Vibration    11          0.629              1.867              2.331
 Vibration    12          0.685              1.696              1.486
 Vibration    13          0.694              1.669              1.402
 Vibration    14          0.731              1.565              1.144
 Vibration    15          0.734              1.555              1.124
 Vibration    16          0.776              1.443              0.918
 Vibration    17          0.909              1.133              0.538
 Vibration    18          0.919              1.110              0.517
 Vibration    19          0.953              1.043              0.458

 Normal termination of Gaussian 09 at Mon Feb 21 17:25:01 2022.
