 Gaussian 09, Revision D.01,
 Gaussian 09:  ES64L-G09RevD.01 24-Apr-2013

 -------------------------------------------
 #n wB97XD/Gen scrf(smd,solvent=toluene) opt
 -------------------------------------------

 -------------------------------------
 diene diels-alder toluene 2 h2o - opt
 -------------------------------------
 Symbolic Z-matrix:
 Charge =  0 Multiplicity = 1

 SCF Done:  E(RwB97XD) =  -615.409550339     A.U. after   15 cycles
 SCF Done:  E(RwB97XD) =  -615.433133304     A.U. after   12 cycles
 SCF Done:  E(RwB97XD) =  -615.434705987     A.U. after   12 cycles
 SCF Done:  E(RwB97XD) =  -615.434794118     A.U. after   12 cycles
 SCF Done:  E(RwB97XD) =  -615.434840356     A.U. after   12 cycles
 SCF Done:  E(RwB97XD) =  -615.434864104     A.U. after   12 cycles
 SCF Done:  E(RwB97XD) =  -615.434875752     A.U. after   11 cycles
 SCF Done:  E(RwB97XD) =  -615.434885319     A.U. after   10 cycles
 SCF Done:  E(RwB97XD) =  -615.434892449     A.U. after   10 cycles
 SCF Done:  E(RwB97XD) =  -615.434897968     A.U. after   11 cycles
 SCF Done:  E(RwB97XD) =  -615.434907122     A.U. after    9 cycles
 SCF Done:  E(RwB97XD) =  -615.434910594     A.U. after   10 cycles
 SCF Done:  E(RwB97XD) =  -615.434911753     A.U. after   10 cycles
 SCF Done:  E(RwB97XD) =  -615.434913741     A.U. after   10 cycles
 SCF Done:  E(RwB97XD) =  -615.434915782     A.U. after    9 cycles
 SCF Done:  E(RwB97XD) =  -615.434918518     A.U. after   10 cycles
 SCF Done:  E(RwB97XD) =  -615.434918587     A.U. after    9 cycles
 SCF Done:  E(RwB97XD) =  -615.434918913     A.U. after    8 cycles
 SCF Done:  E(RwB97XD) =  -615.434919200     A.U. after    8 cycles
 SCF Done:  E(RwB97XD) =  -615.434919382     A.U. after    8 cycles
 Optimization completed.
    -- Stationary point found.

                         Standard orientation:
 ---------------------------------------------------------------------
 Center     Atomic      Atomic             Coordinates (Angstroms)
 Number     Number       Type             X           Y           Z
 ---------------------------------------------------------------------
      1          6           0       -3.315000    0.512604   -0.222440
      2          1           0       -3.541347    1.456094   -0.713335
      3          6           0       -1.902842    0.120714   -0.229356
      4          1           0       -1.180247    0.931486   -0.214006
      5          6           0       -4.306152   -0.161558    0.355282
      6          1           0       -4.073186   -1.075807    0.896797
      7          6           0       -5.741129    0.246875    0.336099
      8          1           0       -6.131252    0.361105    1.351415
      9          1           0       -5.883968    1.189458   -0.194376
     10          1           0       -6.355766   -0.515839   -0.151205
     11          6           0       -1.461805   -1.132258   -0.277540
     12          1           0       -2.159940   -1.961335   -0.347214
     13          6           0       -0.029398   -1.547243   -0.258693
     14          1           0        0.209466   -2.128141   -1.155502
     15          1           0        0.167135   -2.178537    0.613288
     16          6           0        2.103773   -0.441442   -0.022051
     17          6           0        2.759948   -1.772075    0.167841
     18          1           0        2.488333   -2.462667   -0.630923
     19          1           0        3.838299   -1.641206    0.192215
     20          1           0        2.431978   -2.210856    1.112730
     21          8           0        0.796084   -0.384632   -0.216803
     22          8           0        2.705955    0.612560    0.002542
     23          8           0        5.535045    0.422889    0.354361
     24          1           0        4.590844    0.602117    0.229809
     25          1           0        5.990133    1.024887   -0.236256
     26          8           0        0.777095    2.858088   -0.170975
     27          1           0        1.036153    3.452578    0.534797
     28          1           0        1.415569    2.131722   -0.136070
 ---------------------------------------------------------------------

 The electronic state is 1-A.
 Alpha  occ. eigenvalues --  -19.31340 -19.25559 -19.22962 -19.22619 -10.43986
 Alpha  occ. eigenvalues --  -10.35992 -10.30253 -10.28988 -10.28436 -10.28385
 Alpha  occ. eigenvalues --  -10.27874 -10.27360  -1.23462  -1.14447  -1.09189
 Alpha  occ. eigenvalues --   -1.08826  -0.92284  -0.88659  -0.86328  -0.82762
 Alpha  occ. eigenvalues --   -0.76264  -0.70767  -0.66887  -0.62468  -0.61265
 Alpha  occ. eigenvalues --   -0.60867  -0.60649  -0.59092  -0.58460  -0.55655
 Alpha  occ. eigenvalues --   -0.53605  -0.53218  -0.50526  -0.49811  -0.49400
 Alpha  occ. eigenvalues --   -0.48674  -0.47571  -0.46306  -0.45728  -0.44665
 Alpha  occ. eigenvalues --   -0.43474  -0.42426  -0.40858  -0.38868  -0.38447
 Alpha  occ. eigenvalues --   -0.38104  -0.38009  -0.30358
 Alpha virt. eigenvalues --    0.04219   0.04347   0.05054   0.05949   0.05970
 Alpha virt. eigenvalues --    0.06777   0.07131   0.07580   0.08422   0.08953
 Alpha virt. eigenvalues --    0.09237   0.09622   0.09938   0.10596   0.10840

 Mulliken charges:
               1
     1  C   -0.079917
     2  H    0.154560
     3  C   -0.363381
     4  H    0.232923
     5  C   -0.155618
     6  H    0.146433
     7  C   -0.369323
     8  H    0.142110
     9  H    0.136148
    10  H    0.141090
    11  C   -0.124939
    12  H    0.166482
    13  C   -0.089079
    14  H    0.161618
    15  H    0.154630
    16  C    0.630606
    17  C   -0.515426
    18  H    0.172329
    19  H    0.195205
    20  H    0.191900
    21  O   -0.325882
    22  O   -0.548492
    23  O   -0.713075
    24  H    0.344765
    25  H    0.342052
    26  O   -0.713104
    27  H    0.338941
    28  H    0.346443
 Sum of Mulliken charges =   0.00000

 Dipole moment (field-independent basis, Debye):
    X=             -2.2172    Y=             -4.5136    Z=              0.1545  Tot=              5.0311
 Quadrupole moment (field-independent basis, Debye-Ang):
   XX=            -81.3349   YY=            -66.2272   ZZ=            -75.3849
   XY=              0.9689   XZ=             -7.4806   YZ=              3.0078

 Normal termination of Gaussian 09 at Wed Feb  9 14:58:41 2022.
