 Gaussian 09, Revision D.01,
 Gaussian 09:  ES64L-G09RevD.01 24-Apr-2013

 --------------------------------------------
 #n wB97XD/Gen scrf(smd,solvent=toluene) freq
 --------------------------------------------

 --------------------------------
 diene diels-alder toluene - freq
 --------------------------------
 Symbolic Z-matrix:
 Charge =  0 Multiplicity = 1

                         Standard orientation:
 ---------------------------------------------------------------------
 Center     Atomic      Atomic             Coordinates (Angstroms)
 Number     Number       Type             X           Y           Z
 ---------------------------------------------------------------------
      1          6           0       -3.314999    0.512600   -0.222440
      2          1           0       -3.541349    1.456090   -0.713340
      3          6           0       -1.902839    0.120710   -0.229360
      4          1           0       -1.180249    0.931490   -0.214010
      5          6           0       -4.306149   -0.161560    0.355280
      6          1           0       -4.073189   -1.075810    0.896800
      7          6           0       -5.741129    0.246880    0.336100
      8          1           0       -6.131249    0.361110    1.351420
      9          1           0       -5.883969    1.189460   -0.194380
     10          1           0       -6.355769   -0.515840   -0.151210
     11          6           0       -1.461809   -1.132260   -0.277540
     12          1           0       -2.159939   -1.961340   -0.347210
     13          6           0       -0.029399   -1.547240   -0.258690
     14          1           0        0.209471   -2.128140   -1.155500
     15          1           0        0.167141   -2.178540    0.613290
     16          6           0        2.103771   -0.441440   -0.022050
     17          6           0        2.759951   -1.772080    0.167840
     18          1           0        2.488331   -2.462670   -0.630920
     19          1           0        3.838301   -1.641210    0.192210
     20          1           0        2.431981   -2.210860    1.112730
     21          8           0        0.796081   -0.384630   -0.216800
     22          8           0        2.705951    0.612560    0.002540
     23          8           0        5.535051    0.422890    0.354360
     24          1           0        4.590841    0.602120    0.229810
     25          1           0        5.990131    1.024890   -0.236260
     26          8           0        0.777091    2.858090   -0.170970
     27          1           0        1.036151    3.452580    0.534800
     28          1           0        1.415571    2.131720   -0.136070
 ---------------------------------------------------------------------

 SCF Done:  E(RwB97XD) =  -615.434919381     A.U. after   14 cycles

 The electronic state is 1-A.
 Alpha  occ. eigenvalues --  -19.31340 -19.25559 -19.22962 -19.22620 -10.43986
 Alpha  occ. eigenvalues --  -10.35992 -10.30253 -10.28988 -10.28436 -10.28385
 Alpha  occ. eigenvalues --  -10.27874 -10.27360  -1.23462  -1.14447  -1.09189
 Alpha  occ. eigenvalues --   -1.08826  -0.92284  -0.88658  -0.86327  -0.82761
 Alpha  occ. eigenvalues --   -0.76264  -0.70767  -0.66887  -0.62468  -0.61265
 Alpha  occ. eigenvalues --   -0.60867  -0.60648  -0.59092  -0.58460  -0.55655
 Alpha  occ. eigenvalues --   -0.53605  -0.53218  -0.50526  -0.49811  -0.49400
 Alpha  occ. eigenvalues --   -0.48674  -0.47571  -0.46306  -0.45728  -0.44665
 Alpha  occ. eigenvalues --   -0.43474  -0.42425  -0.40858  -0.38868  -0.38447
 Alpha  occ. eigenvalues --   -0.38104  -0.38009  -0.30358
 Alpha virt. eigenvalues --    0.04219   0.04347   0.05054   0.05949   0.05970
 Alpha virt. eigenvalues --    0.06777   0.07131   0.07580   0.08422   0.08953
 Alpha virt. eigenvalues --    0.09237   0.09622   0.09938   0.10596   0.10840

 Mulliken charges:
               1
     1  C   -0.079918
     2  H    0.154559
     3  C   -0.363380
     4  H    0.232922
     5  C   -0.155618
     6  H    0.146433
     7  C   -0.369324
     8  H    0.142110
     9  H    0.136148
    10  H    0.141089
    11  C   -0.124933
    12  H    0.166482
    13  C   -0.089082
    14  H    0.161617
    15  H    0.154629
    16  C    0.630603
    17  C   -0.515423
    18  H    0.172330
    19  H    0.195205
    20  H    0.191900
    21  O   -0.325881
    22  O   -0.548489
    23  O   -0.713076
    24  H    0.344766
    25  H    0.342052
    26  O   -0.713106
    27  H    0.338941
    28  H    0.346445
 Sum of Mulliken charges =   0.00000

 Dipole moment (field-independent basis, Debye):
    X=             -2.2172    Y=             -4.5136    Z=              0.1545  Tot=              5.0311
 Quadrupole moment (field-independent basis, Debye-Ang):
   XX=            -81.3354   YY=            -66.2272   ZZ=            -75.3849
   XY=              0.9689   XZ=             -7.4806   YZ=              3.0077

  Exact polarizability: 187.645  -5.186 139.299  -7.241  -2.089 100.505
 Approx polarizability: 142.693   1.076 133.442  -5.663  -2.616 102.745

                      1                      2                      3
                      A                      A                      A
 Frequencies --     25.0745                44.7443                48.3997
 Red. masses --      5.8290                 5.0650                 4.7424
 Frc consts  --      0.0022                 0.0060                 0.0065
 IR Inten    --      1.2273                 4.3638                 1.8210

                      4                      5                      6
                      A                      A                      A
 Frequencies --     55.9925                58.1286                69.6815
 Red. masses --      4.6717                 5.2434                 2.3475
 Frc consts  --      0.0086                 0.0104                 0.0067
 IR Inten    --      3.5175                 8.2299                12.2372

                      7                      8                      9
                      A                      A                      A
 Frequencies --     93.6655               101.7166               132.8705
 Red. masses --      2.9783                 1.4422                 3.9011
 Frc consts  --      0.0154                 0.0088                 0.0406
 IR Inten    --     21.7324               103.4827                13.3262

                     10                     11                     12
                      A                      A                      A
 Frequencies --    138.0020               141.1282               142.8521
 Red. masses --      1.4352                 3.4774                 2.6716
 Frc consts  --      0.0161                 0.0408                 0.0321
 IR Inten    --     97.2159                 6.6407                28.1353

                     13                     14                     15
                      A                      A                      A
 Frequencies --    163.9883               177.6364               191.8418
 Red. masses --      1.6769                 1.1916                 4.7818
 Frc consts  --      0.0266                 0.0222                 0.1037
 IR Inten    --      2.7398                 4.7651                10.9556

                     16                     17                     18
                      A                      A                      A
 Frequencies --    214.5137               236.9640               260.7931
 Red. masses --      1.3208                 1.6772                 3.4560
 Frc consts  --      0.0358                 0.0555                 0.1385
 IR Inten    --      4.3070                 3.6384                14.8142

                     19                     20                     21
                      A                      A                      A
 Frequencies --    318.8046               348.1168               351.6776
 Red. masses --      1.0503                 1.7549                 1.3621
 Frc consts  --      0.0629                 0.1253                 0.0993
 IR Inten    --    110.9633                48.2178                83.7673

                     22                     23                     24
                      A                      A                      A
 Frequencies --    371.9604               479.7112               548.7253
 Red. masses --      2.9392                 4.0409                 3.0051
 Frc consts  --      0.2396                 0.5479                 0.5331
 IR Inten    --      2.9136                 7.6084                17.9629

                     25                     26                     27
                      A                      A                      A
 Frequencies --    565.0363               593.4601               606.2376
 Red. masses --      1.2805                 1.0918                 2.2605
 Frc consts  --      0.2409                 0.2266                 0.4895
 IR Inten    --     90.0461               174.0384                21.2085

                     28                     29                     30
                      A                      A                      A
 Frequencies --    627.3390               717.2767               796.5204
 Red. masses --      3.3385                 3.0242                 1.6141
 Frc consts  --      0.7741                 0.9167                 0.6034
 IR Inten    --     38.1373                 8.4798                 1.8129

                     31                     32                     33
                      A                      A                      A
 Frequencies --    854.6068               874.0172               931.4655
 Red. masses --      2.1857                 2.5997                 1.7318
 Frc consts  --      0.9405                 1.1701                 0.8853
 IR Inten    --      2.8218                 1.8864                12.5528

                     34                     35                     36
                      A                      A                      A
 Frequencies --   1004.3727              1017.0587              1036.6132
 Red. masses --      1.7766                 1.3647                 1.3131
 Frc consts  --      1.0559                 0.8317                 0.8314
 IR Inten    --     13.0286                25.4183                61.8962

                     37                     38                     39
                      A                      A                      A
 Frequencies --   1049.6706              1059.6694              1078.8344
 Red. masses --      1.4379                 1.5840                 1.5912
 Frc consts  --      0.9334                 1.0479                 1.0911
 IR Inten    --     40.2048                15.5731                 2.1232

                     40                     41                     42
                      A                      A                      A
 Frequencies --   1079.2027              1107.5056              1137.3301
 Red. masses --      1.8382                 1.9457                 2.8095
 Frc consts  --      1.2614                 1.4061                 2.1412
 IR Inten    --     13.9224                 3.9556                11.4063

                     43                     44                     45
                      A                      A                      A
 Frequencies --   1153.0927              1303.7819              1312.4038
 Red. masses --      4.0712                 1.0826                 1.4759
 Frc consts  --      3.1894                 1.0843                 1.4978
 IR Inten    --     77.7126                17.6521                15.3913

                     46                     47                     48
                      A                      A                      A
 Frequencies --   1329.4972              1343.1463              1355.1580
 Red. masses --      1.2922                 1.6001                 1.9465
 Frc consts  --      1.3457                 1.7008                 2.1061
 IR Inten    --      0.7101               230.2143               346.8010

                     49                     50                     51
                      A                      A                      A
 Frequencies --   1375.9981              1415.2027              1428.5957
 Red. masses --      1.3238                 1.2823                 1.4520
 Frc consts  --      1.4768                 1.5132                 1.7460
 IR Inten    --     14.8025                 0.3817               201.7069

                     52                     53                     54
                      A                      A                      A
 Frequencies --   1442.5694              1476.8226              1477.6297
 Red. masses --      1.3890                 1.1066                 1.0448
 Frc consts  --      1.7031                 1.4220                 1.3440
 IR Inten    --      5.2380                31.4595                11.5952

                     55                     56                     57
                      A                      A                      A
 Frequencies --   1481.7533              1488.1110              1496.0261
 Red. masses --      1.0471                 1.0576                 1.1116
 Frc consts  --      1.3546                 1.3798                 1.4657
 IR Inten    --     14.5621                18.0202                 0.7706

                     58                     59                     60
                      A                      A                      A
 Frequencies --   1636.0693              1639.2364              1743.6329
 Red. masses --      1.0842                 1.0779                 6.4368
 Frc consts  --      1.7099                 1.7065                11.5300
 IR Inten    --    111.7729                34.9409                13.9418

                     61                     62                     63
                      A                      A                      A
 Frequencies --   1754.7901              1780.2823              3045.1324
 Red. masses --      5.3463                 9.9288                 1.0563
 Frc consts  --      9.6995                18.5407                 5.7710
 IR Inten    --      0.9437               627.6133                35.5148

                     64                     65                     66
                      A                      A                      A
 Frequencies --   3045.8446              3079.3708              3089.0289
 Red. masses --      1.0380                 1.0403                 1.1054
 Frc consts  --      5.6735                 5.8120                 6.2147
 IR Inten    --     33.4311                 2.6700                11.5358

                     67                     68                     69
                      A                      A                      A
 Frequencies --   3100.4935              3134.6895              3151.1813
 Red. masses --      1.0999                 1.0995                 1.0983
 Frc consts  --      6.2298                 6.3654                 6.4255
 IR Inten    --     19.0383                10.9785                 1.7887

                     70                     71                     72
                      A                      A                      A
 Frequencies --   3157.0251              3163.2951              3182.1018
 Red. masses --      1.0929                 1.0864                 1.0913
 Frc consts  --      6.4177                 6.4053                 6.5106
 IR Inten    --      5.1157                45.6658                 9.1832

                     73                     74                     75
                      A                      A                      A
 Frequencies --   3191.3176              3196.8896              3697.0672
 Red. masses --      1.0882                 1.1038                 1.0575
 Frc consts  --      6.5297                 6.6464                 8.5164
 IR Inten    --      0.1832                 0.8695               645.5239

                     76                     77                     78
                      A                      A                      A
 Frequencies --   3733.2228              3919.7402              3921.2638
 Red. masses --      1.0556                 1.0716                 1.0721
 Frc consts  --      8.6683                 9.7010                 9.7123
 IR Inten    --    308.9867                98.5484               137.3607

 - Thermochemistry -
 -------------------
 Temperature   298.150 Kelvin.  Pressure   1.00000 Atm.
 Atom     1 has atomic number  6 and mass  12.00000

 Molecular mass:   176.10486 amu.
 Principal axes and moments of inertia in atomic units:
                           1         2         3
     Eigenvalues --  1063.847396582.947107528.26687
           X            0.99999  -0.00419  -0.00253
           Y            0.00420   0.99999   0.00061
           Z            0.00252  -0.00062   1.00000
 This molecule is an asymmetric top.
 Rotational symmetry number  1.
 Warning -- assumption of classical behavior for rotation
           may cause significant error
 Rotational temperatures (Kelvin)      0.08142     0.01316     0.01151
 Rotational constants (GHZ):           1.69643     0.27415     0.23973
 Zero-point vibrational energy     616643.1 (Joules/Mol)
                                  147.38123 (Kcal/Mol)
 Warning -- explicit consideration of  27 degrees of freedom as
           vibrations may cause significant error
 Vibrational temperatures:     36.08    64.38    69.64    80.56    83.63
          (Kelvin)            100.26   134.76   146.35   191.17   198.55
                              203.05   205.53   235.94   255.58   276.02
                              308.64   340.94   375.22   458.69   500.86
                              505.99   535.17   690.20   789.49   812.96
                              853.86   872.24   902.60  1032.00  1146.01
                             1229.59  1257.51  1340.17  1445.07  1463.32
                             1491.45  1510.24  1524.63  1552.20  1552.73
                             1593.45  1636.36  1659.04  1875.85  1888.25
                             1912.85  1932.49  1949.77  1979.75  2036.16
                             2055.43  2075.53  2124.82  2125.98  2131.91
                             2141.06  2152.45  2353.94  2358.49  2508.70
                             2524.75  2561.43  4381.26  4382.29  4430.52
                             4444.42  4460.91  4510.11  4533.84  4542.25
                             4551.27  4578.33  4591.59  4599.61  5319.25
                             5371.27  5639.62  5641.82

 Zero-point correction=                           0.234867 (Hartree/Particle)
 Thermal correction to Energy=                    0.253429
 Thermal correction to Enthalpy=                  0.254374
 Thermal correction to Gibbs Free Energy=         0.186102
 Sum of electronic and zero-point Energies=           -615.200052
 Sum of electronic and thermal Energies=              -615.181490
 Sum of electronic and thermal Enthalpies=            -615.180546
 Sum of electronic and thermal Free Energies=         -615.248818

                     E (Thermal)             CV                S
                      KCal/Mol        Cal/Mol-Kelvin    Cal/Mol-Kelvin
 Total                  159.029             60.976            143.690
 Electronic               0.000              0.000              0.000
 Translational            0.889              2.981             41.405
 Rotational               0.889              2.981             32.333
 Vibrational            157.252             55.014             69.952
 Vibration     1          0.593              1.985              6.185
 Vibration     2          0.595              1.980              5.037
 Vibration     3          0.595              1.978              4.882
 Vibration     4          0.596              1.975              4.594
 Vibration     5          0.596              1.974              4.520
 Vibration     6          0.598              1.969              4.162
 Vibration     7          0.603              1.954              3.582
 Vibration     8          0.604              1.948              3.421
 Vibration     9          0.613              1.921              2.904
 Vibration    10          0.614              1.915              2.831
 Vibration    11          0.615              1.912              2.789
 Vibration    12          0.616              1.910              2.765
 Vibration    13          0.623              1.887              2.503
 Vibration    14          0.628              1.870              2.353
 Vibration    15          0.634              1.851              2.210
 Vibration    16          0.644              1.819              2.005
 Vibration    17          0.656              1.784              1.826
 Vibration    18          0.669              1.744              1.656
 Vibration    19          0.705              1.638              1.316
 Vibration    20          0.726              1.579              1.175
 Vibration    21          0.728              1.572              1.159
 Vibration    22          0.744              1.530              1.072
 Vibration    23          0.836              1.295              0.711
 Vibration    24          0.904              1.142              0.547
 Vibration    25          0.921              1.107              0.514
 Vibration    26          0.951              1.046              0.461
 Vibration    27          0.965              1.019              0.439

 Normal termination of Gaussian 09 at Wed Feb  9 16:14:12 2022.
