 Gaussian 09, Revision D.01,
 Gaussian 09:  ES64L-G09RevD.01 24-Apr-2013

 -------------------------------------------------------------------
 #n wB97XD/Gen scrf(smd,solvent=toluene) opt=(calcfc,ts,noeigentest)
 -------------------------------------------------------------------

 -----------------------------------
 ts diels alder toluene 4 h2o - opt2
 -----------------------------------
 Symbolic Z-matrix:
 Charge =  0 Multiplicity = 1

 SCF Done:  E(RwB97XD) =  -1167.10266847     A.U. after   16 cycles

  Exact polarizability:   0.000   0.000   0.000   0.000   0.000   0.000
 Approx polarizability: 270.263  11.753 229.987   3.177 -18.534 224.115

 SCF Done:  E(RwB97XD) =  -1167.10257972     A.U. after   15 cycles
 SCF Done:  E(RwB97XD) =  -1167.10255556     A.U. after   13 cycles
 SCF Done:  E(RwB97XD) =  -1167.10250555     A.U. after   16 cycles
 SCF Done:  E(RwB97XD) =  -1167.10265794     A.U. after   14 cycles
 SCF Done:  E(RwB97XD) =  -1167.10281331     A.U. after   13 cycles
 SCF Done:  E(RwB97XD) =  -1167.10288263     A.U. after   12 cycles
 SCF Done:  E(RwB97XD) =  -1167.10285717     A.U. after   13 cycles
 SCF Done:  E(RwB97XD) =  -1167.10279991     A.U. after   13 cycles
 SCF Done:  E(RwB97XD) =  -1167.10290310     A.U. after   13 cycles
 SCF Done:  E(RwB97XD) =  -1167.10288712     A.U. after   13 cycles
 SCF Done:  E(RwB97XD) =  -1167.10288050     A.U. after   13 cycles
 SCF Done:  E(RwB97XD) =  -1167.10272222     A.U. after   13 cycles
 SCF Done:  E(RwB97XD) =  -1167.10290576     A.U. after   13 cycles
 SCF Done:  E(RwB97XD) =  -1167.10291456     A.U. after   12 cycles
 SCF Done:  E(RwB97XD) =  -1167.10290074     A.U. after   13 cycles
 SCF Done:  E(RwB97XD) =  -1167.10292091     A.U. after   12 cycles
 SCF Done:  E(RwB97XD) =  -1167.10292214     A.U. after   10 cycles
 SCF Done:  E(RwB97XD) =  -1167.10292220     A.U. after    8 cycles
 SCF Done:  E(RwB97XD) =  -1167.10292224     A.U. after    7 cycles
 Optimization completed.
    -- Stationary point found.

                         Standard orientation:
 ---------------------------------------------------------------------
 Center     Atomic      Atomic             Coordinates (Angstroms)
 Number     Number       Type             X           Y           Z
 ---------------------------------------------------------------------
      1          6           0       -2.765907    0.549417   -0.725569
      2          6           0       -1.904268   -0.639858   -0.570933
      3          6           0       -0.587989   -0.204407   -0.563788
      4          6           0       -0.615505    1.267871   -0.722215
      5          1           0       -2.253557   -1.607673   -0.890613
      6          1           0        0.262358   -0.783220   -0.894458
      7          6           0       -2.379491    3.033871   -0.780853
      8          1           0       -2.176198    3.429222   -1.777252
      9          1           0       -3.451282    3.062171   -0.598245
     10          1           0       -1.869592    3.650406   -0.041330
     11          7           0       -1.937193    1.664524   -0.667656
     12          8           0        0.317938    2.030738   -0.877267
     13          8           0       -3.966072    0.610176   -0.893194
     14          6           0       -1.466194   -1.907158    1.902432
     15          1           0       -1.623798   -2.975948    2.004147
     16          6           0       -0.153002   -1.442973    1.886552
     17          1           0        0.644178   -2.173999    1.957521
     18          6           0       -2.551947   -1.121022    1.583979
     19          1           0       -2.477738   -0.050208    1.741207
     20          6           0       -3.940839   -1.663309    1.526544
     21          1           0       -4.561234   -1.099441    0.830801
     22          1           0       -3.954528   -2.714120    1.237356
     23          1           0       -4.409085   -1.572069    2.511863
     24          6           0        0.170584   -0.149166    1.539538
     25          1           0       -0.533626    0.646471    1.756166
     26          6           0        1.585022    0.329512    1.456176
     27          1           0        1.977826    0.520206    2.459705
     28          1           0        1.633176    1.255490    0.885602
     29          6           0        3.546227   -0.432064    0.274470
     30          6           0        4.158069    0.921181    0.444860
     31          1           0        4.085924    1.271832    1.474286
     32          1           0        5.198341    0.885216    0.132075
     33          1           0        3.626074    1.635489   -0.188139
     34          8           0        2.369215   -0.688907    0.828053
     35          8           0        4.063039   -1.328496   -0.360983
     36          1           0       -4.738012   -1.003398   -1.542143
     37          1           0        1.279570    4.820016    0.724713
     38          1           0        2.492412   -2.327252   -1.123494
     39          1           0        5.745195   -1.011399   -1.180447
     40          8           0        1.675132   -2.587403   -1.571000
     41          1           0        1.930750   -2.764326   -2.478037
     42          8           0        6.592631   -0.707312   -1.539095
     43          1           0        7.202632   -1.433918   -1.403642
     44          8           0        0.917622    3.995642    1.053698
     45          1           0        0.706956    3.470776    0.267873
     46          8           0       -5.013390   -1.867535   -1.884394
     47          1           0       -5.393880   -1.688593   -2.745626
 ---------------------------------------------------------------------

 The electronic state is 1-A.
 Alpha  occ. eigenvalues --  -19.31460 -19.25568 -19.25488 -19.25368 -19.24053
 Alpha  occ. eigenvalues --  -19.23582 -19.22966 -19.22906 -14.48995 -10.43983
 Alpha  occ. eigenvalues --  -10.41654 -10.41521 -10.35869 -10.32250 -10.32181
 Alpha  occ. eigenvalues --  -10.31966 -10.31196 -10.30877 -10.29934 -10.29725
 Alpha  occ. eigenvalues --  -10.29253 -10.27698  -1.23466  -1.18940  -1.16858
 Alpha  occ. eigenvalues --   -1.14461  -1.10275  -1.09766  -1.09188  -1.09151
 Alpha  occ. eigenvalues --   -1.07362  -0.95219  -0.92129  -0.89808  -0.86206
 Alpha  occ. eigenvalues --   -0.83975  -0.81076  -0.78280  -0.76412  -0.72039
 Alpha  occ. eigenvalues --   -0.70906  -0.68264  -0.65106  -0.63069  -0.62623
 Alpha  occ. eigenvalues --   -0.61811  -0.61168  -0.60957  -0.60665  -0.59974
 Alpha  occ. eigenvalues --   -0.59300  -0.59061  -0.58614  -0.56614  -0.56015
 Alpha  occ. eigenvalues --   -0.54887  -0.53858  -0.53553  -0.52328  -0.52061
 Alpha  occ. eigenvalues --   -0.51701  -0.50539  -0.50096  -0.49506  -0.49016
 Alpha  occ. eigenvalues --   -0.48627  -0.48346  -0.47854  -0.46926  -0.46660
 Alpha  occ. eigenvalues --   -0.46141  -0.45837  -0.45283  -0.44697  -0.44025
 Alpha  occ. eigenvalues --   -0.43748  -0.40491  -0.39704  -0.39228  -0.39187
 Alpha  occ. eigenvalues --   -0.38814  -0.38526  -0.38423  -0.37007  -0.36590
 Alpha  occ. eigenvalues --   -0.32741  -0.31344
 Alpha virt. eigenvalues --   -0.01662   0.01668   0.04251   0.05034   0.05077
 Alpha virt. eigenvalues --    0.05788   0.05856   0.06712   0.06879   0.07151
 Alpha virt. eigenvalues --    0.07474   0.08048   0.08616   0.09103   0.09281

 Mulliken charges:
               1
     1  C    0.228527
     2  C   -0.207320
     3  C   -0.085462
     4  C    0.384959
     5  H    0.242225
     6  H    0.269923
     7  C   -0.390196
     8  H    0.176858
     9  H    0.184605
    10  H    0.175814
    11  N   -0.058524
    12  O   -0.486910
    13  O   -0.516133
    14  C   -0.134597
    15  H    0.167200
    16  C   -0.173284
    17  H    0.191911
    18  C   -0.050749
    19  H    0.172615
    20  C   -0.390855
    21  H    0.146338
    22  H    0.156161
    23  H    0.162237
    24  C   -0.307250
    25  H    0.200969
    26  C    0.014685
    27  H    0.181158
    28  H    0.147909
    29  C    0.505710
    30  C   -0.534126
    31  H    0.182828
    32  H    0.195361
    33  H    0.210444
    34  O   -0.326440
    35  O   -0.486794
    36  H    0.320230
    37  H    0.346620
    38  H    0.340762
    39  H    0.338249
    40  O   -0.754181
    41  H    0.348656
    42  O   -0.706257
    43  H    0.341137
    44  O   -0.699247
    45  H    0.313025
    46  O   -0.680846
    47  H    0.342053
 Sum of Mulliken charges =   0.00000

 Dipole moment (field-independent basis, Debye):
    X=             -0.2685    Y=              2.5503    Z=              2.3756  Tot=              3.4957
 Quadrupole moment (field-independent basis, Debye-Ang):
   XX=           -152.9647   YY=           -130.0813   ZZ=           -128.6484
   XY=             -8.9269   XZ=              9.9080   YZ=             -5.3169

 Normal termination of Gaussian 09 at Sun Feb 13 07:15:31 2022.
