 Gaussian 09, Revision D.01,
 Gaussian 09:  ES64L-G09RevD.01 24-Apr-2013

 --------------------------------------------
 #n wB97XD/Gen scrf(smd,solvent=toluene) freq
 --------------------------------------------

 -----------------------------
 ts diels water toluene - freq
 -----------------------------
 Symbolic Z-matrix:
 Charge =  0 Multiplicity = 1

                         Standard orientation:
 ---------------------------------------------------------------------
 Center     Atomic      Atomic             Coordinates (Angstroms)
 Number     Number       Type             X           Y           Z
 ---------------------------------------------------------------------
      1          6           0       -2.765910    0.549419   -0.725570
      2          6           0       -1.904270   -0.639860   -0.570930
      3          6           0       -0.587990   -0.204410   -0.563790
      4          6           0       -0.615500    1.267870   -0.722220
      5          1           0       -2.253560   -1.607670   -0.890610
      6          1           0        0.262360   -0.783220   -0.894460
      7          6           0       -2.379491    3.033870   -0.780850
      8          1           0       -2.176201    3.429220   -1.777250
      9          1           0       -3.451281    3.062169   -0.598250
     10          1           0       -1.869591    3.650410   -0.041330
     11          7           0       -1.937191    1.664520   -0.667660
     12          8           0        0.317939    2.030740   -0.877270
     13          8           0       -3.966070    0.610179   -0.893190
     14          6           0       -1.466190   -1.907160    1.902430
     15          1           0       -1.623800   -2.975950    2.004150
     16          6           0       -0.153000   -1.442970    1.886550
     17          1           0        0.644180   -2.174000    1.957520
     18          6           0       -2.551950   -1.121020    1.583980
     19          1           0       -2.477740   -0.050210    1.741210
     20          6           0       -3.940840   -1.663311    1.526540
     21          1           0       -4.561230   -1.099441    0.830800
     22          1           0       -3.954530   -2.714121    1.237360
     23          1           0       -4.409090   -1.572071    2.511860
     24          6           0        0.170580   -0.149170    1.539540
     25          1           0       -0.533630    0.646470    1.756170
     26          6           0        1.585020    0.329510    1.456180
     27          1           0        1.977830    0.520210    2.459710
     28          1           0        1.633180    1.255490    0.885600
     29          6           0        3.546230   -0.432059    0.274470
     30          6           0        4.158070    0.921181    0.444860
     31          1           0        4.085920    1.271831    1.474290
     32          1           0        5.198340    0.885221    0.132070
     33          1           0        3.626069    1.635491   -0.188140
     34          8           0        2.369220   -0.688910    0.828050
     35          8           0        4.063040   -1.328499   -0.360980
     36          1           0       -4.738010   -1.003401   -1.542140
     37          1           0        1.279569    4.820020    0.724710
     38          1           0        2.492410   -2.327250   -1.123490
     39          1           0        5.745190   -1.011399   -1.180450
     40          8           0        1.675130   -2.587400   -1.571000
     41          1           0        1.930750   -2.764330   -2.478040
     42          8           0        6.592630   -0.707309   -1.539100
     43          1           0        7.202630   -1.433919   -1.403640
     44          8           0        0.917619    3.995640    1.053700
     45          1           0        0.706959    3.470780    0.267870
     46          8           0       -5.013390   -1.867531   -1.884390
     47          1           0       -5.393880   -1.688591   -2.745630
 ---------------------------------------------------------------------

 SCF Done:  E(RwB97XD) =  -1167.10292224     A.U. after   16 cycles

 The electronic state is 1-A.
 Alpha  occ. eigenvalues --  -19.31460 -19.25568 -19.25488 -19.25368 -19.24053
 Alpha  occ. eigenvalues --  -19.23582 -19.22966 -19.22906 -14.48994 -10.43983
 Alpha  occ. eigenvalues --  -10.41654 -10.41521 -10.35869 -10.32250 -10.32181
 Alpha  occ. eigenvalues --  -10.31966 -10.31196 -10.30877 -10.29934 -10.29725
 Alpha  occ. eigenvalues --  -10.29253 -10.27698  -1.23466  -1.18940  -1.16858
 Alpha  occ. eigenvalues --   -1.14461  -1.10275  -1.09766  -1.09188  -1.09151
 Alpha  occ. eigenvalues --   -1.07362  -0.95219  -0.92129  -0.89808  -0.86206
 Alpha  occ. eigenvalues --   -0.83975  -0.81076  -0.78280  -0.76412  -0.72039
 Alpha  occ. eigenvalues --   -0.70906  -0.68264  -0.65106  -0.63069  -0.62623
 Alpha  occ. eigenvalues --   -0.61810  -0.61168  -0.60957  -0.60665  -0.59974
 Alpha  occ. eigenvalues --   -0.59300  -0.59061  -0.58614  -0.56614  -0.56015
 Alpha  occ. eigenvalues --   -0.54887  -0.53858  -0.53553  -0.52328  -0.52061
 Alpha  occ. eigenvalues --   -0.51701  -0.50539  -0.50096  -0.49506  -0.49016
 Alpha  occ. eigenvalues --   -0.48627  -0.48346  -0.47854  -0.46927  -0.46659
 Alpha  occ. eigenvalues --   -0.46141  -0.45837  -0.45283  -0.44697  -0.44025
 Alpha  occ. eigenvalues --   -0.43748  -0.40491  -0.39704  -0.39228  -0.39187
 Alpha  occ. eigenvalues --   -0.38814  -0.38526  -0.38423  -0.37007  -0.36590
 Alpha  occ. eigenvalues --   -0.32741  -0.31344
 Alpha virt. eigenvalues --   -0.01662   0.01668   0.04251   0.05034   0.05077
 Alpha virt. eigenvalues --    0.05788   0.05856   0.06712   0.06879   0.07151
 Alpha virt. eigenvalues --    0.07474   0.08048   0.08616   0.09103   0.09281

 Mulliken charges:
               1
     1  C    0.228529
     2  C   -0.207329
     3  C   -0.085462
     4  C    0.384963
     5  H    0.242224
     6  H    0.269924
     7  C   -0.390198
     8  H    0.176857
     9  H    0.184605
    10  H    0.175814
    11  N   -0.058523
    12  O   -0.486908
    13  O   -0.516126
    14  C   -0.134594
    15  H    0.167201
    16  C   -0.173281
    17  H    0.191911
    18  C   -0.050751
    19  H    0.172616
    20  C   -0.390854
    21  H    0.146338
    22  H    0.156162
    23  H    0.162237
    24  C   -0.307253
    25  H    0.200969
    26  C    0.014679
    27  H    0.181159
    28  H    0.147909
    29  C    0.505710
    30  C   -0.534125
    31  H    0.182828
    32  H    0.195362
    33  H    0.210444
    34  O   -0.326439
    35  O   -0.486799
    36  H    0.320229
    37  H    0.346621
    38  H    0.340763
    39  H    0.338250
    40  O   -0.754184
    41  H    0.348657
    42  O   -0.706259
    43  H    0.341137
    44  O   -0.699247
    45  H    0.313024
    46  O   -0.680845
    47  H    0.342055
 Sum of Mulliken charges =   0.00000

 Dipole moment (field-independent basis, Debye):
    X=             -0.2687    Y=              2.5504    Z=              2.3756  Tot=              3.4957
 Quadrupole moment (field-independent basis, Debye-Ang):
   XX=           -152.9647   YY=           -130.0811   ZZ=           -128.6484
   XY=             -8.9265   XZ=              9.9084   YZ=             -5.3169

  Exact polarizability: 300.919  15.885 243.047   4.432 -24.399 215.452
 Approx polarizability: 269.823  12.556 231.325   4.123 -18.755 223.307

 ******    1 imaginary frequencies (negative Signs) ******

                      1                      2                      3
                      A                      A                      A
 Frequencies --   -523.8546                19.1799                24.5006
 Red. masses --      8.3433                 6.2386                 5.9113
 Frc consts  --      1.3490                 0.0014                 0.0021
 IR Inten    --     14.7106                 0.5976                 0.3685

                      4                      5                      6
                      A                      A                      A
 Frequencies --     26.7365                31.3457                34.2813
 Red. masses --      7.9967                 4.8536                 6.3898
 Frc consts  --      0.0034                 0.0028                 0.0044
 IR Inten    --      2.4030                 0.5275                 2.2215

                      7                      8                      9
                      A                      A                      A
 Frequencies --     36.0429                44.0610                48.7798
 Red. masses --      6.4497                 5.9867                 6.0382
 Frc consts  --      0.0049                 0.0068                 0.0085
 IR Inten    --      2.4105                 2.2160                 7.6835

                     10                     11                     12
                      A                      A                      A
 Frequencies --     57.2366                63.0131                67.8384
 Red. masses --      5.4596                 3.6401                 5.1922
 Frc consts  --      0.0105                 0.0085                 0.0141
 IR Inten    --      3.7591                 4.2756                 7.2008

                     13                     14                     15
                      A                      A                      A
 Frequencies --     81.5287                95.4956               118.2155
 Red. masses --      5.4115                 3.3287                 1.3879
 Frc consts  --      0.0212                 0.0179                 0.0114
 IR Inten    --      6.6411                 0.7835                 2.1423

                     16                     17                     18
                      A                      A                      A
 Frequencies --    123.6783               127.6165               130.6268
 Red. masses --      2.8947                 3.1194                 1.7087
 Frc consts  --      0.0261                 0.0299                 0.0172
 IR Inten    --      9.9306                16.0962                96.6243

                     19                     20                     21
                      A                      A                      A
 Frequencies --    133.8945               135.2164               144.7653
 Red. masses --      1.2900                 2.0825                 5.2780
 Frc consts  --      0.0136                 0.0224                 0.0652
 IR Inten    --    108.5061                63.2929                 3.2404

                     22                     23                     24
                      A                      A                      A
 Frequencies --    150.6454               156.4953               157.5177
 Red. masses --      4.0586                 1.6329                 2.3786
 Frc consts  --      0.0543                 0.0236                 0.0348
 IR Inten    --      2.1494                81.1777                50.9936

                     25                     26                     27
                      A                      A                      A
 Frequencies --    158.3589               170.8753               182.1214
 Red. masses --      3.1486                 1.1588                 1.3218
 Frc consts  --      0.0465                 0.0199                 0.0258
 IR Inten    --     26.1310               102.3271                11.8824

                     28                     29                     30
                      A                      A                      A
 Frequencies --    197.5614               200.4716               206.3951
 Red. masses --      3.2762                 2.4467                 1.4933
 Frc consts  --      0.0753                 0.0579                 0.0375
 IR Inten    --      6.3183                 5.3640                 5.3574

                     31                     32                     33
                      A                      A                      A
 Frequencies --    210.1566               241.7476               266.6200
 Red. masses --      5.5609                 3.4844                 2.5422
 Frc consts  --      0.1447                 0.1200                 0.1065
 IR Inten    --      6.7848                16.3002                 8.6331

                     34                     35                     36
                      A                      A                      A
 Frequencies --    289.8567               293.2682               304.7447
 Red. masses --      1.7210                 2.8743                 1.4630
 Frc consts  --      0.0852                 0.1456                 0.0800
 IR Inten    --     27.9966                15.2986                58.7486

                     37                     38                     39
                      A                      A                      A
 Frequencies --    322.4744               344.9355               353.5707
 Red. masses --      2.4496                 1.1411                 1.1002
 Frc consts  --      0.1501                 0.0800                 0.0810
 IR Inten    --     10.8579               170.7532               132.5039

                     40                     41                     42
                      A                      A                      A
 Frequencies --    358.3307               364.2943               412.9872
 Red. masses --      1.0593                 2.8656                 6.5884
 Frc consts  --      0.0801                 0.2241                 0.6621
 IR Inten    --    175.8358                 5.6867                25.8571

                     43                     44                     45
                      A                      A                      A
 Frequencies --    438.7392               473.7109               497.7366
 Red. masses --      4.2049                 2.8823                 3.1154
 Frc consts  --      0.4769                 0.3811                 0.4547
 IR Inten    --     14.0201                 2.9618                 1.9943

                     46                     47                     48
                      A                      A                      A
 Frequencies --    540.7704               561.7940               566.3136
 Red. masses --      1.1790                 1.6077                 1.7482
 Frc consts  --      0.2031                 0.2990                 0.3303
 IR Inten    --    116.3889                86.7662                14.0415

                     49                     50                     51
                      A                      A                      A
 Frequencies --    590.4810               596.4205               601.1088
 Red. masses --      1.1513                 1.5347                 1.3989
 Frc consts  --      0.2365                 0.3216                 0.2978
 IR Inten    --    191.5249                80.9393                89.5366

                     52                     53                     54
                      A                      A                      A
 Frequencies --    623.8906               628.5340               637.5605
 Red. masses --      6.3881                 3.3142                 3.5045
 Frc consts  --      1.4650                 0.7714                 0.8393
 IR Inten    --     29.2960                27.1238                 0.1548

                     55                     56                     57
                      A                      A                      A
 Frequencies --    719.8436               727.3514               750.2382
 Red. masses --      3.8620                 7.2672                 4.6859
 Frc consts  --      1.1791                 2.2652                 1.5540
 IR Inten    --      2.6052                66.6048                 8.9669

                     58                     59                     60
                      A                      A                      A
 Frequencies --    782.0553               795.9538               801.0330
 Red. masses --      2.5404                 6.9705                 1.8877
 Frc consts  --      0.9155                 2.6019                 0.7137
 IR Inten    --      2.2937                 5.5985                16.3701

                     61                     62                     63
                      A                      A                      A
 Frequencies --    846.7098               877.3094               916.9298
 Red. masses --      2.0807                 1.9220                 1.4878
 Frc consts  --      0.8789                 0.8716                 0.7370
 IR Inten    --      7.2228                 6.8479                 5.2541

                     64                     65                     66
                      A                      A                      A
 Frequencies --    943.5551               972.1598               978.9846
 Red. masses --      1.5809                 1.2667                 1.9952
 Frc consts  --      0.8293                 0.7053                 1.1267
 IR Inten    --      5.4210               102.7816                58.8546

                     67                     68                     69
                      A                      A                      A
 Frequencies --    992.0736              1013.0835              1034.5247
 Red. masses --      1.4282                 1.5677                 1.4061
 Frc consts  --      0.8282                 0.9480                 0.8866
 IR Inten    --     30.4243                38.4953                21.0114

                     70                     71                     72
                      A                      A                      A
 Frequencies --   1040.0913              1053.4432              1067.8671
 Red. masses --      1.4667                 1.5529                 1.5514
 Frc consts  --      0.9348                 1.0154                 1.0423
 IR Inten    --     20.5066                36.8643                20.2666

                     73                     74                     75
                      A                      A                      A
 Frequencies --   1072.3821              1086.2275              1118.4480
 Red. masses --      1.8159                 1.4849                 2.4710
 Frc consts  --      1.2304                 1.0322                 1.8212
 IR Inten    --     13.8910                16.2711                45.3837

                     76                     77                     78
                      A                      A                      A
 Frequencies --   1139.4614              1150.0904              1159.9456
 Red. masses --      2.3294                 2.7029                 1.3216
 Frc consts  --      1.7819                 2.1064                 1.0477
 IR Inten    --     27.6855                39.0152                 4.0346

                     79                     80                     81
                      A                      A                      A
 Frequencies --   1167.0307              1191.3874              1277.0313
 Red. masses --      3.6195                 1.9355                 1.2788
 Frc consts  --      2.9045                 1.6186                 1.2287
 IR Inten    --     79.2726                 9.9017               106.6837

                     82                     83                     84
                      A                      A                      A
 Frequencies --   1292.8747              1298.6950              1302.3791
 Red. masses --      1.6915                 2.0929                 1.4689
 Frc consts  --      1.6658                 2.0798                 1.4680
 IR Inten    --    120.6753                 8.4110                56.4438

                     85                     86                     87
                      A                      A                      A
 Frequencies --   1345.4887              1349.4726              1355.5792
 Red. masses --      1.7700                 1.6067                 1.7015
 Frc consts  --      1.8879                 1.7239                 1.8422
 IR Inten    --    190.1380                 4.4568               208.5810

                     88                     89                     90
                      A                      A                      A
 Frequencies --   1387.0278              1415.5183              1421.0184
 Red. masses --      1.9320                 1.5696                 1.3011
 Frc consts  --      2.1899                 1.8530                 1.5479
 IR Inten    --     13.4107               225.5603                 8.3744

                     91                     92                     93
                      A                      A                      A
 Frequencies --   1440.6524              1448.4388              1453.5137
 Red. masses --      1.7956                 1.6450                 1.5684
 Frc consts  --      2.1957                 2.0334                 1.9523
 IR Inten    --    146.6587                14.3093                 8.9174

                     94                     95                     96
                      A                      A                      A
 Frequencies --   1473.0587              1479.8488              1482.0337
 Red. masses --      1.0831                 1.2006                 1.0858
 Frc consts  --      1.3847                 1.5491                 1.4052
 IR Inten    --      8.7836                29.0829                67.2444

                     97                     98                     99
                      A                      A                      A
 Frequencies --   1484.8274              1490.9843              1497.2023
 Red. masses --      1.6101                 1.0838                 1.2407
 Frc consts  --      2.0915                 1.4195                 1.6386
 IR Inten    --    181.7943                27.6171                88.2766

                    100                    101                    102
                      A                      A                      A
 Frequencies --   1502.1033              1510.5924              1619.3333
 Red. masses --      1.0993                 1.1904                 3.5640
 Frc consts  --      1.4614                 1.6005                 5.5064
 IR Inten    --     10.1234                44.6905                47.4737

                    103                    104                    105
                      A                      A                      A
 Frequencies --   1624.8128              1635.3676              1636.1752
 Red. masses --      3.3976                 1.1041                 1.0939
 Frc consts  --      5.2848                 1.7397                 1.7254
 IR Inten    --     18.7221                40.4048               161.9292

                    106                    107                    108
                      A                      A                      A
 Frequencies --   1641.6271              1642.3841              1752.2797
 Red. masses --      1.0778                 1.0834                10.4952
 Frc consts  --      1.7114                 1.7218                18.9865
 IR Inten    --     72.3442                86.1075              1339.2041

                    109                    110                    111
                      A                      A                      A
 Frequencies --   1777.9003              1822.8716              3051.5590
 Red. masses --     10.1616                11.1586                 1.0443
 Frc consts  --     18.9246                21.8460                 5.7297
 IR Inten    --    574.5179               209.9580                18.1334

                    112                    113                    114
                      A                      A                      A
 Frequencies --   3060.2541              3074.3707              3078.3198
 Red. masses --      1.0684                 1.0364                 1.0380
 Frc consts  --      5.8953                 5.7716                 5.7951
 IR Inten    --     14.2197                37.6308                 2.1378

                    115                    116                    117
                      A                      A                      A
 Frequencies --   3122.8166              3148.7797              3152.2357
 Red. masses --      1.0921                 1.1031                 1.0987
 Frc consts  --      6.2749                 6.4440                 6.4321
 IR Inten    --      7.0449                 8.9207                 1.8589

                    118                    119                    120
                      A                      A                      A
 Frequencies --   3154.3567              3160.7892              3179.1074
 Red. masses --      1.0954                 1.1003                 1.0905
 Frc consts  --      6.4216                 6.4769                 6.4939
 IR Inten    --      0.5243                 4.6903                 1.1808

                    121                    122                    123
                      A                      A                      A
 Frequencies --   3184.3185              3186.0891              3189.0930
 Red. masses --      1.1038                 1.0867                 1.1054
 Frc consts  --      6.5945                 6.4992                 6.6240
 IR Inten    --      0.7443                17.3023                 0.6042

                    124                    125                    126
                      A                      A                      A
 Frequencies --   3191.0323              3205.4610              3234.6731
 Red. masses --      1.0886                 1.0914                 1.0962
 Frc consts  --      6.5312                 6.6074                 6.7574
 IR Inten    --      8.1178                 5.0815                51.7675

                    127                    128                    129
                      A                      A                      A
 Frequencies --   3276.7546              3691.3635              3697.8867
 Red. masses --      1.0967                 1.0581                 1.0575
 Frc consts  --      6.9380                 8.4951                 8.5196
 IR Inten    --      5.0319               673.0111               639.3629

                    130                    131                    132
                      A                      A                      A
 Frequencies --   3715.0586              3736.9834              3919.6791
 Red. masses --      1.0567                 1.0557                 1.0720
 Frc consts  --      8.5924                 8.6859                 9.7035
 IR Inten    --    389.8850               245.4377                98.8022

                    133                    134                    135
                      A                      A                      A
 Frequencies --   3921.2984              3921.5318              3922.2756
 Red. masses --      1.0720                 1.0719                 1.0710
 Frc consts  --      9.7115                 9.7124                 9.7074
 IR Inten    --    156.2916               171.1118                96.7120

 - Thermochemistry -
 -------------------
 Temperature   298.150 Kelvin.  Pressure   1.00000 Atm.
 Atom     1 has atomic number  6 and mass  12.00000

 Molecular mass:   323.15802 amu.
 Principal axes and moments of inertia in atomic units:
                           1         2         3
     Eigenvalues --  5184.43258********************
           X            0.99995   0.00899  -0.00313
           Y           -0.00896   0.99993   0.00825
           Z            0.00320  -0.00822   0.99996
 This molecule is an asymmetric top.
 Rotational symmetry number  1.
 Warning -- assumption of classical behavior for rotation
           may cause significant error
 Rotational temperatures (Kelvin)      0.01671     0.00694     0.00609
 Rotational constants (GHZ):           0.34811     0.14459     0.12698
    1 imaginary frequencies ignored.
 Zero-point vibrational energy    1005341.1 (Joules/Mol)
                                  240.28228 (Kcal/Mol)
 Warning -- explicit consideration of  50 degrees of freedom as
           vibrations may cause significant error
 Vibrational temperatures:     27.60    35.25    38.47    45.10    49.32
          (Kelvin)             51.86    63.39    70.18    82.35    90.66
                               97.60   117.30   137.40   170.09   177.95
                              183.61   187.94   192.64   194.55   208.28
                              216.74   225.16   226.63   227.84   245.85
                              262.03   284.25   288.43   296.96   302.37
                              347.82   383.61   417.04   421.95   438.46
                              463.97   496.28   508.71   515.56   524.14
                              594.20   631.25   681.56   716.13   778.05
                              808.30   814.80   849.57   858.11   864.86
                              897.64   904.32   917.31  1035.69  1046.50
                             1079.42  1125.20  1145.20  1152.51  1218.22
                             1262.25  1319.26  1357.56  1398.72  1408.54
                             1427.37  1457.60  1488.45  1496.46  1515.67
                             1536.42  1542.92  1562.84  1609.20  1639.43
                             1654.72  1668.90  1679.09  1714.14  1837.36
                             1860.16  1868.53  1873.83  1935.86  1941.59
                             1950.37  1995.62  2036.61  2044.53  2072.77
                             2083.98  2091.28  2119.40  2129.17  2132.31
                             2136.33  2145.19  2154.14  2161.19  2173.40
                             2329.86  2337.74  2352.93  2354.09  2361.93
                             2363.02  2521.14  2558.00  2622.70  4390.51
                             4403.02  4423.33  4429.01  4493.03  4530.39
                             4535.36  4538.41  4547.67  4574.02  4581.52
                             4584.07  4588.39  4591.18  4611.94  4653.97
                             4714.51  5311.04  5320.43  5345.13  5376.68
                             5639.54  5641.87  5642.20  5643.27

 Zero-point correction=                           0.382914 (Hartree/Particle)
 Thermal correction to Energy=                    0.415310
 Thermal correction to Enthalpy=                  0.416254
 Thermal correction to Gibbs Free Energy=         0.314936
 Sum of electronic and zero-point Energies=          -1166.720008
 Sum of electronic and thermal Energies=             -1166.687612
 Sum of electronic and thermal Enthalpies=           -1166.686668
 Sum of electronic and thermal Free Energies=        -1166.787986

                     E (Thermal)             CV                S
                      KCal/Mol        Cal/Mol-Kelvin    Cal/Mol-Kelvin
 Total                  260.611            108.768            213.242
 Electronic               0.000              0.000              0.000
 Translational            0.889              2.981             43.214
 Rotational               0.889              2.981             35.174
 Vibrational            258.834            102.807            134.853
 Vibration     1          0.593              1.986              6.717
 Vibration     2          0.593              1.985              6.231
 Vibration     3          0.593              1.984              6.058
 Vibration     4          0.594              1.983              5.742
 Vibration     5          0.594              1.983              5.565
 Vibration     6          0.594              1.982              5.466
 Vibration     7          0.595              1.980              5.068
 Vibration     8          0.595              1.978              4.866
 Vibration     9          0.596              1.975              4.550
 Vibration    10          0.597              1.972              4.361
 Vibration    11          0.598              1.970              4.215
 Vibration    12          0.600              1.962              3.854
 Vibration    13          0.603              1.952              3.544
 Vibration    14          0.608              1.934              3.129
 Vibration    15          0.610              1.929              3.042
 Vibration    16          0.611              1.926              2.982
 Vibration    17          0.612              1.923              2.937
 Vibration    18          0.613              1.919              2.889
 Vibration    19          0.613              1.918              2.870
 Vibration    20          0.616              1.908              2.740
 Vibration    21          0.618              1.902              2.664
 Vibration    22          0.620              1.895              2.592
 Vibration    23          0.621              1.894              2.579
 Vibration    24          0.621              1.893              2.569
 Vibration    25          0.626              1.878              2.426
 Vibration    26          0.630              1.864              2.307
 Vibration    27          0.637              1.843              2.156
 Vibration    28          0.638              1.839              2.129
 Vibration    29          0.641              1.831              2.075
 Vibration    30          0.642              1.825              2.042
 Vibration    31          0.658              1.776              1.790
 Vibration    32          0.672              1.734              1.618
 Vibration    33          0.686              1.693              1.475
 Vibration    34          0.688              1.686              1.455
 Vibration    35          0.696              1.665              1.391
 Vibration    36          0.707              1.630              1.298
 Vibration    37          0.723              1.586              1.189
 Vibration    38          0.730              1.568              1.150
 Vibration    39          0.733              1.558              1.129
 Vibration    40          0.738              1.546              1.104
 Vibration    41          0.777              1.442              0.916
 Vibration    42          0.799              1.386              0.831
 Vibration    43          0.830              1.308              0.727
 Vibration    44          0.853              1.255              0.664
 Vibration    45          0.896              1.160              0.564
 Vibration    46          0.917              1.114              0.520
 Vibration    47          0.922              1.104              0.511
 Vibration    48          0.948              1.052              0.466
 Vibration    49          0.954              1.039              0.456
 Vibration    50          0.959              1.029              0.448

 Normal termination of Gaussian 09 at Tue Feb 15 05:41:25 2022.
