 Gaussian 09, Revision D.01,
 Gaussian 09:  ES64L-G09RevD.01 24-Apr-2013

 ----------------------------------------------------------------------
 # freq scrf=(cpcm,solvent=water) geom=connectivity def2svp empiricaldi
 spersion=gd3 m062x
 ----------------------------------------------------------------------

 -------------------
 Title Card Required
 -------------------
 Symbolic Z-matrix:
 Charge =  0 Multiplicity = 1

                         Standard orientation:
 ---------------------------------------------------------------------
 Center     Atomic      Atomic             Coordinates (Angstroms)
 Number     Number       Type             X           Y           Z
 ---------------------------------------------------------------------
      1          6           0        0.464510    0.795267   -0.855588
      2          6           0        1.612484    1.395640    0.012729
      3          6           0       -0.327530    2.262538    0.888204
      4          6           0       -0.744005    1.587573   -0.390524
      5          1           0        0.606597    0.466494   -1.881755
      6          1           0       -1.767220    1.386221   -0.698276
      7          6           0        0.981145    1.663257    1.371870
      8          1           0        1.585581    2.371810    1.954480
      9          1           0        0.822767    0.738923    1.942260
     10          6           0        1.193470    2.433790   -0.902302
     11          1           0        1.674203    2.676524   -1.848126
     12          6           0       -0.097019    2.978268   -0.406994
     13          1           0       -0.582315    3.887352   -0.751262
     14          1           0        2.590463    0.926769   -0.104556
     15          1           0       -1.100899    2.616064    1.567948
     16          7           0       -0.739944   -0.875827    0.856425
     17          7           0        0.074227   -0.982837   -0.141174
     18          6           0       -2.084470   -0.893222    0.502484
     19          6           0        1.380270   -1.398051    0.242754
     20          8           0        1.731062   -1.719053    1.346047
     21          8           0       -2.964561   -0.813798    1.331392
     22          8           0        2.158710   -1.455778   -0.836051
     23          8           0       -2.344645   -1.025852   -0.810343
     24          6           0       -3.717956   -1.039894   -1.163977
     25          1           0       -3.756526   -1.183118   -2.248329
     26          1           0       -4.244125   -1.857739   -0.654017
     27          1           0       -4.198939   -0.089346   -0.892327
     28          6           0        3.489915   -1.909507   -0.618450
     29          1           0        4.017141   -1.242015    0.076897
     30          1           0        3.484265   -2.925441   -0.203137
     31          1           0        3.979619   -1.899965   -1.596149
 ---------------------------------------------------------------------

 SCF Done:  E(RM062X) =  -836.853069513     A.U. after   17 cycles

 The electronic state is 1-A.
 Alpha  occ. eigenvalues --  -19.68490 -19.66863 -19.63304 -19.60835 -14.82452
 Alpha  occ. eigenvalues --  -14.77453 -10.71193 -10.69096 -10.62127 -10.61526
 Alpha  occ. eigenvalues --  -10.61118 -10.60302 -10.60264 -10.59260 -10.58779
 Alpha  occ. eigenvalues --  -10.58259 -10.56737  -1.24334  -1.22203  -1.14355
 Alpha  occ. eigenvalues --   -1.11650  -1.10570  -1.07971  -0.90505  -0.88630
 Alpha  occ. eigenvalues --   -0.84178  -0.81674  -0.78571  -0.77395  -0.67633
 Alpha  occ. eigenvalues --   -0.66766  -0.64947  -0.64721  -0.63546  -0.62948
 Alpha  occ. eigenvalues --   -0.62130  -0.58719  -0.57937  -0.56821  -0.55767
 Alpha  occ. eigenvalues --   -0.54383  -0.53597  -0.52830  -0.51518  -0.49960
 Alpha  occ. eigenvalues --   -0.49213  -0.48233  -0.47512  -0.46896  -0.45898
 Alpha  occ. eigenvalues --   -0.43877  -0.43678  -0.42873  -0.42477  -0.41143
 Alpha  occ. eigenvalues --   -0.38394  -0.38065  -0.37259  -0.36575  -0.36377
 Alpha  occ. eigenvalues --   -0.35858  -0.30792  -0.24827
 Alpha virt. eigenvalues --   -0.07133   0.05560   0.08381   0.08890   0.10443
 Alpha virt. eigenvalues --    0.11872   0.12908   0.13989   0.15014   0.15469
 Alpha virt. eigenvalues --    0.16100   0.16606   0.16738   0.16900   0.17222

 Mulliken charges:
               1
     1  C   -0.043888
     2  C   -0.203720
     3  C   -0.144291
     4  C   -0.095614
     5  H    0.103950
     6  H    0.083837
     7  C    0.243913
     8  H    0.074593
     9  H    0.067882
    10  C    0.109758
    11  H    0.100215
    12  C   -0.026567
    13  H    0.075283
    14  H    0.081424
    15  H    0.077759
    16  N   -0.239295
    17  N   -0.192890
    18  C    0.276454
    19  C    0.329855
    20  O   -0.267592
    21  O   -0.325305
    22  O   -0.351088
    23  O   -0.366038
    24  C    0.128788
    25  H    0.065002
    26  H    0.055338
    27  H    0.054000
    28  C    0.121272
    29  H    0.065684
    30  H    0.065758
    31  H    0.075525
 Sum of Mulliken charges =   0.00000

 Dipole moment (field-independent basis, Debye):
    X=              4.7886    Y=              7.1050    Z=             -7.0184  Tot=             11.0756
 Quadrupole moment (field-independent basis, Debye-Ang):
   XX=            -85.4473   YY=            -86.6200   ZZ=           -103.8274
   XY=             -2.4321   XZ=              4.6679   YZ=              4.0474

  Exact polarizability: 216.239  46.566 260.208 -22.759 -38.378 164.709
 Approx polarizability: 196.255  47.949 247.799 -30.414 -48.017 176.854

 ******    1 imaginary frequencies (negative Signs) ******

                      1                      2                      3
                      A                      A                      A
 Frequencies --   -641.1254                29.6463                56.7592
 Red. masses --      9.3663                 3.6090                 5.7744
 Frc consts  --      2.2683                 0.0019                 0.0110
 IR Inten    --   3243.7254                 0.5852                 1.9285

                      4                      5                      6
                      A                      A                      A
 Frequencies --     60.8966                71.4189                95.9947
 Red. masses --      3.6878                 5.2665                 3.5060
 Frc consts  --      0.0081                 0.0158                 0.0190
 IR Inten    --      2.9832                 0.6008                 3.4672

                      7                      8                      9
                      A                      A                      A
 Frequencies --    106.6395               148.8506               153.8677
 Red. masses --      3.9125                 1.1716                 2.2559
 Frc consts  --      0.0262                 0.0153                 0.0315
 IR Inten    --      2.0137                 0.2098                10.3121

                     10                     11                     12
                      A                      A                      A
 Frequencies --    170.8852               187.7804               196.7804
 Red. masses --      1.7306                 3.5170                 3.7402
 Frc consts  --      0.0298                 0.0731                 0.0853
 IR Inten    --      2.5833                 1.4705                 4.5291

                     13                     14                     15
                      A                      A                      A
 Frequencies --    214.8790               274.8559               305.0275
 Red. masses --      4.9210                 4.3588                 6.6148
 Frc consts  --      0.1339                 0.1940                 0.3626
 IR Inten    --     11.8522                 7.3424                26.5594

                     16                     17                     18
                      A                      A                      A
 Frequencies --    337.4105               347.5638               425.7733
 Red. masses --      5.3277                 5.2953                 1.9570
 Frc consts  --      0.3574                 0.3769                 0.2090
 IR Inten    --     21.8965                11.1722                13.2618

                     19                     20                     21
                      A                      A                      A
 Frequencies --    439.1685               469.9360               523.1021
 Red. masses --      6.3916                 7.6122                 3.0596
 Frc consts  --      0.7263                 0.9905                 0.4933
 IR Inten    --     24.1703                36.9502                15.2756

                     22                     23                     24
                      A                      A                      A
 Frequencies --    625.9020               639.2671               692.5785
 Red. masses --      8.8906                 4.2836                 5.5257
 Frc consts  --      2.0521                 1.0314                 1.5616
 IR Inten    --     31.8270                15.1563                21.1575

                     25                     26                     27
                      A                      A                      A
 Frequencies --    722.5246               753.0721               783.7076
 Red. masses --      5.7821                 3.5612                 7.5002
 Frc consts  --      1.7784                 1.1899                 2.7141
 IR Inten    --     58.5904                97.3358                28.7623

                     28                     29                     30
                      A                      A                      A
 Frequencies --    794.3808               805.5948               812.1953
 Red. masses --      2.9733                 1.6730                 4.3644
 Frc consts  --      1.1055                 0.6397                 1.6963
 IR Inten    --      2.7877                89.0224                43.2922

                     31                     32                     33
                      A                      A                      A
 Frequencies --    826.2948               835.6975               855.4359
 Red. masses --      3.7299                 1.8735                 1.5899
 Frc consts  --      1.5004                 0.7709                 0.6855
 IR Inten    --     30.4417                35.7903                34.4811

                     34                     35                     36
                      A                      A                      A
 Frequencies --    893.4714               930.7452               941.7343
 Red. masses --      2.5434                 1.7614                 2.2130
 Frc consts  --      1.1963                 0.8990                 1.1563
 IR Inten    --    226.2968                17.4653                21.5183

                     37                     38                     39
                      A                      A                      A
 Frequencies --    943.1893               960.9032               969.9534
 Red. masses --      2.7800                 1.6549                 1.4064
 Frc consts  --      1.4571                 0.9003                 0.7796
 IR Inten    --      5.4544                17.0814                47.7076

                     40                     41                     42
                      A                      A                      A
 Frequencies --   1003.9746              1015.1979              1038.7206
 Red. masses --      2.5697                 2.1276                 1.4914
 Frc consts  --      1.5261                 1.2920                 0.9481
 IR Inten    --     23.9117                42.1063                28.7828

                     43                     44                     45
                      A                      A                      A
 Frequencies --   1041.9349              1049.8164              1068.9008
 Red. masses --      1.3221                 1.2989                 1.5930
 Frc consts  --      0.8456                 0.8434                 1.0724
 IR Inten    --      5.8323                 5.7828                17.8938

                     46                     47                     48
                      A                      A                      A
 Frequencies --   1077.6237              1112.3112              1128.0585
 Red. masses --      1.8411                 1.5067                 4.2609
 Frc consts  --      1.2597                 1.0984                 3.1946
 IR Inten    --      2.6703                48.2980                 2.1735

                     49                     50                     51
                      A                      A                      A
 Frequencies --   1159.4908              1176.7287              1177.4711
 Red. masses --      6.0460                 1.2465                 1.2765
 Frc consts  --      4.7890                 1.0169                 1.0427
 IR Inten    --    152.3337                15.3636                25.5978

                     52                     53                     54
                      A                      A                      A
 Frequencies --   1181.6347              1212.0269              1217.6728
 Red. masses --      1.2954                 1.6530                 1.6709
 Frc consts  --      1.0656                 1.4307                 1.4597
 IR Inten    --      3.5914               123.2068                12.0552

                     55                     56                     57
                      A                      A                      A
 Frequencies --   1225.3006              1246.5306              1290.5186
 Red. masses --      1.5505                 1.3591                 4.4015
 Frc consts  --      1.3715                 1.2442                 4.3190
 IR Inten    --    108.4685                11.8170               847.5094

                     58                     59                     60
                      A                      A                      A
 Frequencies --   1302.3259              1309.4630              1319.3655
 Red. masses --      2.8197                 2.2612                 5.5510
 Frc consts  --      2.8177                 2.2844                 5.6931
 IR Inten    --    314.5091               203.5579              1386.7454

                     61                     62                     63
                      A                      A                      A
 Frequencies --   1361.6672              1397.3381              1429.3013
 Red. masses --      2.5207                 4.0215                 2.4471
 Frc consts  --      2.7536                 4.6264                 2.9454
 IR Inten    --      0.9911               132.0808                22.4538

                     64                     65                     66
                      A                      A                      A
 Frequencies --   1438.6954              1455.6642              1457.6510
 Red. masses --      1.7482                 1.8895                 1.0536
 Frc consts  --      2.1319                 2.3590                 1.3190
 IR Inten    --    390.8794               447.1655                 5.6765

                     67                     68                     69
                      A                      A                      A
 Frequencies --   1459.0805              1464.8633              1466.1560
 Red. masses --      1.1167                 1.2861                 1.2249
 Frc consts  --      1.4007                 1.6260                 1.5514
 IR Inten    --     15.9990                59.7702                95.3940

                     70                     71                     72
                      A                      A                      A
 Frequencies --   1478.4766              1482.1371              1817.0264
 Red. masses --      1.1363                 1.1569                12.1845
 Frc consts  --      1.4634                 1.4974                23.7017
 IR Inten    --     53.3992                47.1541              1160.8762

                     73                     74                     75
                      A                      A                      A
 Frequencies --   1864.1853              3070.6340              3074.2343
 Red. masses --     12.2765                 1.0335                 1.0320
 Frc consts  --     25.1364                 5.7412                 5.7465
 IR Inten    --    656.0916                48.7200                31.3037

                     76                     77                     78
                      A                      A                      A
 Frequencies --   3097.2235              3165.4587              3169.7025
 Red. masses --      1.0613                 1.1058                 1.1101
 Frc consts  --      5.9985                 6.5280                 6.5713
 IR Inten    --     20.9245                31.3408                 1.8498

                     79                     80                     81
                      A                      A                      A
 Frequencies --   3170.6181              3205.7174              3212.7110
 Red. masses --      1.1085                 1.1086                 1.1086
 Frc consts  --      6.5658                 6.7121                 6.7416
 IR Inten    --     20.9514                12.7640                 7.4086

                     82                     83                     84
                      A                      A                      A
 Frequencies --   3227.2883              3242.0646              3257.9585
 Red. masses --      1.0940                 1.0951                 1.0915
 Frc consts  --      6.7132                 6.7815                 6.8260
 IR Inten    --      1.8147                 0.3911                 2.6044

                     85                     86                     87
                      A                      A                      A
 Frequencies --   3263.7979              3267.8541              3273.8600
 Red. masses --      1.0966                 1.0963                 1.0999
 Frc consts  --      6.8823                 6.8979                 6.9459
 IR Inten    --     18.7994                 2.8271                37.2096

 - Thermochemistry -
 -------------------
 Temperature   298.150 Kelvin.  Pressure   1.00000 Atm.
 Atom     1 has atomic number  6 and mass  12.00000

 Molecular mass:   238.09536 amu.
 Principal axes and moments of inertia in atomic units:
                           1         2         3
     Eigenvalues --  2887.347124014.835105506.72650
           X            0.99975  -0.01943   0.01105
           Y            0.01923   0.99965   0.01816
           Z           -0.01140  -0.01794   0.99977
 This molecule is an asymmetric top.
 Rotational symmetry number  1.
 Warning -- assumption of classical behavior for rotation
           may cause significant error
 Rotational temperatures (Kelvin)      0.03000     0.02157     0.01573
 Rotational constants (GHZ):           0.62505     0.44952     0.32773
    1 imaginary frequencies ignored.
 Zero-point vibrational energy     646164.8 (Joules/Mol)
                                  154.43709 (Kcal/Mol)
 Warning -- explicit consideration of  20 degrees of freedom as
           vibrations may cause significant error
 Vibrational temperatures:     42.65    81.66    87.62   102.76   138.11
          (Kelvin)            153.43   214.16   221.38   245.87   270.17
                              283.12   309.16   395.46   438.87   485.46
                              500.07   612.59   631.86   676.13   752.63
                              900.53   919.76   996.46  1039.55  1083.50
                             1127.58  1142.94  1159.07  1168.57  1188.85
                             1202.38  1230.78  1285.50  1339.13  1354.94
                             1357.04  1382.52  1395.54  1444.49  1460.64
                             1494.49  1499.11  1510.45  1537.91  1550.46
                             1600.37  1623.02  1668.25  1693.05  1694.12
                             1700.11  1743.83  1751.96  1762.93  1793.48
                             1856.77  1873.75  1884.02  1898.27  1959.13
                             2010.46  2056.44  2069.96  2094.37  2097.23
                             2099.29  2107.61  2109.47  2127.20  2132.46
                             2614.29  2682.14  4417.95  4423.13  4456.21
                             4554.38  4560.49  4561.81  4612.31  4622.37
                             4643.34  4664.60  4687.47  4695.87  4701.71
                             4710.35

 Zero-point correction=                           0.246111 (Hartree/Particle)
 Thermal correction to Energy=                    0.261815
 Thermal correction to Enthalpy=                  0.262759
 Thermal correction to Gibbs Free Energy=         0.201845
 Sum of electronic and zero-point Energies=           -836.606958
 Sum of electronic and thermal Energies=              -836.591254
 Sum of electronic and thermal Enthalpies=            -836.590310
 Sum of electronic and thermal Free Energies=         -836.651225

                     E (Thermal)             CV                S
                      KCal/Mol        Cal/Mol-Kelvin    Cal/Mol-Kelvin
 Total                  164.292             58.335            128.206
 Electronic               0.000              0.000              0.000
 Translational            0.889              2.981             42.304
 Rotational               0.889              2.981             32.523
 Vibrational            162.514             52.373             53.378
 Vibration     1          0.593              1.984              5.853
 Vibration     2          0.596              1.975              4.567
 Vibration     3          0.597              1.973              4.428
 Vibration     4          0.598              1.968              4.114
 Vibration     5          0.603              1.952              3.534
 Vibration     6          0.606              1.944              3.329
 Vibration     7          0.618              1.904              2.687
 Vibration     8          0.619              1.898              2.624
 Vibration     9          0.626              1.878              2.426
 Vibration    10          0.632              1.857              2.250
 Vibration    11          0.636              1.844              2.163
 Vibration    12          0.645              1.818              2.002
 Vibration    13          0.677              1.720              1.565
 Vibration    14          0.696              1.664              1.389
 Vibration    15          0.718              1.601              1.224
 Vibration    16          0.725              1.580              1.177
 Vibration    17          0.788              1.414              0.873
 Vibration    18          0.799              1.385              0.829
 Vibration    19          0.827              1.317              0.738
 Vibration    20          0.878              1.199              0.603

 Normal termination of Gaussian 09 at Wed Sep 16 20:11:15 2020.
