 Gaussian 09, Revision D.01,
 Gaussian 09:  ES64L-G09RevD.01 24-Apr-2013

 ----------------------------------------------------------------------
 # opt freq scrf=(cpcm,solvent=water) geom=connectivity def2svp m062x e
 mpiricaldispersion=gd3
 ----------------------------------------------------------------------

 -------------------
 Title Card Required
 -------------------
 Symbolic Z-matrix:
 Charge =  0 Multiplicity = 1

 SCF Done:  E(RM062X) =  -271.140289563     A.U. after   11 cycles
 Optimization completed.
    -- Stationary point found.
 Normal termination of Gaussian 09 at Wed Sep  9 11:29:07 2020.

 -------------------------------------------------------------------
 #N Geom=AllCheck Guess=TCheck SCRF=Check GenChk RM062X/def2SVP Freq
 -------------------------------------------------------------------

 Structure from the checkpoint file:  "m062x_quadricyclane_cycloaddition_PM6_toluene_water.chk"
 -------------------
 Title Card Required
 -------------------
 Charge =  0 Multiplicity = 1

                         Standard orientation:
 ---------------------------------------------------------------------
 Center     Atomic      Atomic             Coordinates (Angstroms)
 Number     Number       Type             X           Y           Z
 ---------------------------------------------------------------------
      1          6           0        0.753370    0.771506   -0.705247
      2          6           0        0.000000    1.147432    0.546688
      3          6           0        0.000000   -1.147432    0.546688
      4          6           0        0.753516   -0.771427   -0.705122
      5          1           0        1.443803    1.428039   -1.231629
      6          1           0        1.444057   -1.427912   -1.231415
      7          6           0        0.000000    0.000000    1.534439
      8          1           0       -0.896154   -0.000080    2.173407
      9          1           0        0.896154    0.000080    2.173407
     10          6           0       -0.753516    0.771427   -0.705122
     11          1           0       -1.444057    1.427912   -1.231415
     12          6           0       -0.753370   -0.771506   -0.705247
     13          1           0       -1.443803   -1.428039   -1.231629
     14          1           0        0.000064    2.189489    0.868410
     15          1           0       -0.000064   -2.189489    0.868410
 ---------------------------------------------------------------------

 SCF Done:  E(RM062X) =  -271.140289563     A.U. after    1 cycles

 The electronic state is 1-A.
 Alpha  occ. eigenvalues --  -10.55553 -10.55539 -10.55500 -10.55500 -10.55493
 Alpha  occ. eigenvalues --  -10.55481 -10.54796  -1.04966  -0.87386  -0.81989
 Alpha  occ. eigenvalues --   -0.71512  -0.64317  -0.62368  -0.61199  -0.58696
 Alpha  occ. eigenvalues --   -0.50717  -0.50068  -0.49919  -0.45871  -0.41190
 Alpha  occ. eigenvalues --   -0.40261  -0.37407  -0.33884  -0.32730  -0.27922
 Alpha virt. eigenvalues --    0.10420   0.12221   0.14096   0.14740   0.16470
 Alpha virt. eigenvalues --    0.16661   0.17923   0.18135   0.19046   0.19085
 Alpha virt. eigenvalues --    0.23077   0.24451   0.25552   0.27695   0.30046

 Mulliken charges:
               1
     1  C   -0.033066
     2  C   -0.207050
     3  C   -0.207050
     4  C   -0.033131
     5  H    0.032167
     6  H    0.032162
     7  C    0.226732
     8  H    0.044585
     9  H    0.044585
    10  C   -0.033131
    11  H    0.032162
    12  C   -0.033066
    13  H    0.032167
    14  H    0.050965
    15  H    0.050965
 Sum of Mulliken charges =   0.00000

 Dipole moment (field-independent basis, Debye):
    X=              0.0000    Y=              0.0000    Z=             -0.0200  Tot=              0.0200
 Quadrupole moment (field-independent basis, Debye-Ang):
   XX=            -42.1778   YY=            -39.0156   ZZ=            -41.7809
   XY=              0.0006   XZ=              0.0000   YZ=              0.0000

  Exact polarizability:  77.397   0.001  80.981   0.000   0.000  83.442
 Approx polarizability:  76.921   0.001  73.520   0.000   0.000  77.937

                      1                      2                      3
                      B                      A                      B
 Frequencies --    395.1421               538.6169               675.8398
 Red. masses --      1.8062                 2.6904                 2.7830
 Frc consts  --      0.1662                 0.4599                 0.7489
 IR Inten    --      1.8341                 0.0000                 0.0005

                      4                      5                      6
                      A                      B                      A
 Frequencies --    713.6155               732.9321               741.7346
 Red. masses --      3.4378                 1.7339                 3.4731
 Frc consts  --      1.0315                 0.5488                 1.1258
 IR Inten    --      0.0000                 2.4556                 6.3279

                      7                      8                      9
                      B                      A                      A
 Frequencies --    796.7514               810.6371               854.2774
 Red. masses --      1.7326                 1.4028                 1.4638
 Frc consts  --      0.6480                 0.5431                 0.6294
 IR Inten    --     85.6774                45.2528                 0.0000

                     10                     11                     12
                      B                      A                      B
 Frequencies --    881.9228               924.0777               931.9049
 Red. masses --      1.3289                 1.5891                 1.8531
 Frc consts  --      0.6090                 0.7995                 0.9482
 IR Inten    --      2.1709                 6.7669                 3.4570

                     13                     14                     15
                      B                      A                      A
 Frequencies --    940.9143               973.0923              1009.2140
 Red. masses --      1.6730                 3.2387                 1.3999
 Frc consts  --      0.8727                 1.8069                 0.8401
 IR Inten    --     14.6875                 1.0499                 0.0009

                     16                     17                     18
                      B                      B                      A
 Frequencies --   1009.8146              1020.3767              1031.7634
 Red. masses --      2.3311                 1.5808                 1.2185
 Frc consts  --      1.4005                 0.9697                 0.7643
 IR Inten    --      0.1140                 0.6938                 0.0000

                     19                     20                     21
                      B                      A                      B
 Frequencies --   1033.8400              1065.2745              1078.9688
 Red. masses --      1.2271                 2.3742                 1.8787
 Frc consts  --      0.7727                 1.5874                 1.2886
 IR Inten    --      1.1197                 0.0000                 0.4509

                     22                     23                     24
                      A                      A                      A
 Frequencies --   1122.4570              1182.2520              1211.8799
 Red. masses --      3.0303                 1.2433                 1.4674
 Frc consts  --      2.2494                 1.0239                 1.2697
 IR Inten    --      3.4188                 0.0000                 0.0000

                     25                     26                     27
                      B                      B                      B
 Frequencies --   1236.5261              1280.2190              1307.0548
 Red. masses --      1.4713                 1.9906                 2.2537
 Frc consts  --      1.3254                 1.9223                 2.2685
 IR Inten    --      0.0000                31.0548                 3.2345

                     28                     29                     30
                      A                      A                      B
 Frequencies --   1307.8888              1396.5311              1433.0365
 Red. masses --      2.6075                 3.4241                 3.6626
 Frc consts  --      2.6279                 3.9345                 4.4316
 IR Inten    --      5.7772                 0.6426                 0.0525

                     31                     32                     33
                      A                      A                      B
 Frequencies --   1456.6414              3077.4779              3135.2137
 Red. masses --      1.1596                 1.0601                 1.1088
 Frc consts  --      1.4497                 5.9157                 6.4215
 IR Inten    --      1.4039                59.7336                33.0950

                     34                     35                     36
                      B                      A                      A
 Frequencies --   3213.0043              3215.7217              3221.2949
 Red. masses --      1.0920                 1.0939                 1.0896
 Frc consts  --      6.6417                 6.6646                 6.6614
 IR Inten    --      8.9666                 4.6414                 0.0000

                     37                     38                     39
                      B                      B                      A
 Frequencies --   3229.7568              3230.9928              3239.9177
 Red. masses --      1.0938                 1.0978                 1.1060
 Frc consts  --      6.7223                 6.7524                 6.8404
 IR Inten    --     13.7595                19.2574                 3.8215

 - Thermochemistry -
 -------------------
 Temperature   298.150 Kelvin.  Pressure   1.00000 Atm.
 Atom     1 has atomic number  6 and mass  12.00000

 Molecular mass:    92.06260 amu.
 Principal axes and moments of inertia in atomic units:
                           1         2         3
     Eigenvalues --   406.06539 411.82003 551.68245
           X           -0.00003   0.00000   1.00000
           Y            1.00000   0.00000   0.00003
           Z            0.00000   1.00000   0.00000
 This molecule is an asymmetric top.
 Rotational symmetry number  2.
 Rotational temperatures (Kelvin)      0.21330     0.21032     0.15700
 Rotational constants (GHZ):           4.44446     4.38235     3.27134
 Zero-point vibrational energy     338893.5 (Joules/Mol)
                                   80.99750 (Kcal/Mol)
 Warning -- explicit consideration of   2 degrees of freedom as
           vibrations may cause significant error
 Vibrational temperatures:    568.52   774.95   972.38  1026.73  1054.52
          (Kelvin)           1067.19  1146.35  1166.32  1229.11  1268.89
                             1329.54  1340.80  1353.76  1400.06  1452.03
                             1452.90  1468.09  1484.48  1487.46  1532.69
                             1552.39  1614.96  1700.99  1743.62  1779.08
                             1841.95  1880.56  1881.76  2009.29  2061.82
                             2095.78  4427.80  4510.87  4622.79  4626.70
                             4634.72  4646.89  4648.67  4661.51

 Zero-point correction=                           0.129078 (Hartree/Particle)
 Thermal correction to Energy=                    0.133660
 Thermal correction to Enthalpy=                  0.134604
 Thermal correction to Gibbs Free Energy=         0.101867
 Sum of electronic and zero-point Energies=           -271.011212
 Sum of electronic and thermal Energies=              -271.006629
 Sum of electronic and thermal Enthalpies=            -271.005685
 Sum of electronic and thermal Free Energies=         -271.038422

                     E (Thermal)             CV                S
                      KCal/Mol        Cal/Mol-Kelvin    Cal/Mol-Kelvin
 Total                   83.873             19.943             68.900
 Electronic               0.000              0.000              0.000
 Translational            0.889              2.981             39.472
 Rotational               0.889              2.981             24.648
 Vibrational             82.096             13.982              4.781
 Vibration     1          0.762              1.481              0.981
 Vibration     2          0.894              1.165              0.568

 Optimization completed.
    -- Stationary point found.
 Normal termination of Gaussian 09 at Wed Sep  9 11:30:28 2020.
