 Gaussian 09, Revision D.01,
 Gaussian 09:  ES64L-G09RevD.01 24-Apr-2013

 ----------------------------------------------------------------------
 # opt freq scrf=(cpcm,solvent=water) geom=connectivity def2svp m062x e
 mpiricaldispersion=gd3
 ----------------------------------------------------------------------

 -------------------
 Title Card Required
 -------------------
 Symbolic Z-matrix:
 Charge =  0 Multiplicity = 1

 SCF Done:  E(RM062X) =  -565.734249512     A.U. after   15 cycles
 SCF Done:  E(RM062X) =  -565.734911984     A.U. after   13 cycles
 SCF Done:  E(RM062X) =  -565.735175925     A.U. after   12 cycles
 SCF Done:  E(RM062X) =  -565.735146499     A.U. after   12 cycles
 SCF Done:  E(RM062X) =  -565.735244470     A.U. after    7 cycles
 SCF Done:  E(RM062X) =  -565.735577706     A.U. after   13 cycles
 SCF Done:  E(RM062X) =  -565.734629298     A.U. after   15 cycles
 SCF Done:  E(RM062X) =  -565.736049323     A.U. after   11 cycles
 SCF Done:  E(RM062X) =  -565.736213365     A.U. after   13 cycles
 SCF Done:  E(RM062X) =  -565.736248982     A.U. after   13 cycles
 SCF Done:  E(RM062X) =  -565.736442229     A.U. after   12 cycles
 SCF Done:  E(RM062X) =  -565.736520918     A.U. after   12 cycles
 SCF Done:  E(RM062X) =  -565.736566195     A.U. after   12 cycles
 SCF Done:  E(RM062X) =  -565.736591087     A.U. after   11 cycles
 SCF Done:  E(RM062X) =  -565.736599316     A.U. after   12 cycles
 SCF Done:  E(RM062X) =  -565.736600131     A.U. after   10 cycles
 SCF Done:  E(RM062X) =  -565.736600156     A.U. after   10 cycles
 SCF Done:  E(RM062X) =  -565.736600356     A.U. after   10 cycles
 Optimization completed.
    -- Stationary point found.
 Normal termination of Gaussian 09 at Wed Sep 16 18:03:22 2020.

 -------------------------------------------------------------------
 #N Geom=AllCheck Guess=TCheck SCRF=Check GenChk RM062X/def2SVP Freq
 -------------------------------------------------------------------

 Structure from the checkpoint file:  "m062x_dmad_cycloaddition_PM6_toluene_water_1.chk"
 -------------------
 Title Card Required
 -------------------
 Charge =  0 Multiplicity = 1

                         Standard orientation:
 ---------------------------------------------------------------------
 Center     Atomic      Atomic             Coordinates (Angstroms)
 Number     Number       Type             X           Y           Z
 ---------------------------------------------------------------------
      1          7           0       -0.301785   -0.342827   -0.431834
      2          7           0        0.298075    0.343858    0.391443
      3          6           0       -1.706274   -0.496584   -0.124603
      4          6           0        1.701544    0.494710    0.085507
      5          8           0        2.165799    1.570356   -0.148273
      6          8           0       -2.181393   -1.582789    0.023953
      7          8           0        2.334023   -0.650344    0.172346
      8          8           0       -2.326329    0.658357   -0.101458
      9          6           0       -3.739375    0.608030    0.126032
     10          1           0       -4.088865    1.642231    0.080386
     11          1           0       -4.220984    0.000952   -0.650429
     12          1           0       -3.941716    0.173931    1.112746
     13          6           0        3.752084   -0.603281   -0.023966
     14          1           0        4.118424   -1.610927    0.186299
     15          1           0        3.974870   -0.320111   -1.060072
     16          1           0        4.199573    0.124810    0.663441
 ---------------------------------------------------------------------

 SCF Done:  E(RM062X) =  -565.736600356     A.U. after    1 cycles

 The electronic state is 1-A.
 Alpha  occ. eigenvalues --  -19.70588 -19.70577 -19.65256 -19.65246 -14.85990
 Alpha  occ. eigenvalues --  -14.85905 -10.73184 -10.73152 -10.61922 -10.61916
 Alpha  occ. eigenvalues --   -1.27464  -1.26117  -1.18145  -1.16406  -1.16141
 Alpha  occ. eigenvalues --   -0.91114  -0.83918  -0.80186  -0.69728  -0.66185
 Alpha  occ. eigenvalues --   -0.65534  -0.62192  -0.59819  -0.59085  -0.58476
 Alpha  occ. eigenvalues --   -0.55559  -0.52892  -0.52591  -0.49792  -0.48815
 Alpha  occ. eigenvalues --   -0.47028  -0.45243  -0.45116  -0.40930  -0.40101
 Alpha  occ. eigenvalues --   -0.39903  -0.39863  -0.33353
 Alpha virt. eigenvalues --   -0.05337   0.05161   0.05534   0.11555   0.11609
 Alpha virt. eigenvalues --    0.15899   0.15959   0.16884   0.16944   0.17915
 Alpha virt. eigenvalues --    0.18046   0.24634   0.24728   0.32174   0.35620

 Mulliken charges:
               1
     1  N   -0.130361
     2  N   -0.127164
     3  C    0.356641
     4  C    0.355875
     5  O   -0.258124
     6  O   -0.257683
     7  O   -0.327924
     8  O   -0.327218
     9  C    0.116794
    10  H    0.085191
    11  H    0.077546
    12  H    0.078310
    13  C    0.116282
    14  H    0.085186
    15  H    0.079640
    16  H    0.077005
 Sum of Mulliken charges =   0.00000

 Dipole moment (field-independent basis, Debye):
    X=              0.0306    Y=              0.0266    Z=              0.2468  Tot=              0.2502
 Quadrupole moment (field-independent basis, Debye-Ang):
   XX=            -30.6278   YY=            -65.6941   ZZ=            -55.3709
   XY=            -13.0884   XZ=              0.3762   YZ=              0.1925

  Exact polarizability: 100.006   5.026  75.941   2.051   1.247  52.759
 Approx polarizability:  79.333   9.483  83.438   2.162   1.153  54.076

                      1                      2                      3
                      A                      A                      A
 Frequencies --     32.3194                73.2136                87.5987
 Red. masses --      6.1590                 4.9615                 8.1906
 Frc consts  --      0.0038                 0.0157                 0.0370
 IR Inten    --      9.5566                 5.7155                 0.4868

                      4                      5                      6
                      A                      A                      A
 Frequencies --     99.3757               145.7952               150.4614
 Red. masses --      4.0458                 1.1278                 2.5699
 Frc consts  --      0.0235                 0.0141                 0.0343
 IR Inten    --      2.1772                 0.5507                 0.0873

                      7                      8                      9
                      A                      A                      A
 Frequencies --    167.6997               244.4823               263.1256
 Red. masses --      1.1998                 6.2122                 6.8966
 Frc consts  --      0.0199                 0.2188                 0.2813
 IR Inten    --      0.1849                 0.0105                17.1068

                     10                     11                     12
                      A                      A                      A
 Frequencies --    302.5082               308.5016               455.9782
 Red. masses --      4.1363                 4.1065                11.7379
 Frc consts  --      0.2230                 0.2303                 1.4379
 IR Inten    --     43.9375                 6.7279                 0.0005

                     13                     14                     15
                      A                      A                      A
 Frequencies --    597.5180               652.6046               679.5993
 Red. masses --      8.7927                 9.9317                 8.9463
 Frc consts  --      1.8496                 2.4922                 2.4344
 IR Inten    --      4.8531                 0.2018                24.0971

                     16                     17                     18
                      A                      A                      A
 Frequencies --    844.6396               870.2412               948.8961
 Red. masses --     11.7047                 6.1869                 5.2897
 Frc consts  --      4.9199                 2.7606                 2.8062
 IR Inten    --     72.4308                 0.0771               111.4186

                     19                     20                     21
                      A                      A                      A
 Frequencies --    971.7050              1099.1912              1104.5587
 Red. masses --      6.9424                 8.0707                 8.6303
 Frc consts  --      3.8621                 5.7452                 6.2038
 IR Inten    --      0.2086                44.6278                 1.6154

                     22                     23                     24
                      A                      A                      A
 Frequencies --   1179.0411              1182.4008              1213.6555
 Red. masses --      1.2913                 1.2889                 1.5767
 Frc consts  --      1.0577                 1.0617                 1.3683
 IR Inten    --      2.2829                 1.6816                14.0270

                     25                     26                     27
                      A                      A                      A
 Frequencies --   1215.9246              1334.4320              1359.2488
 Red. masses --      1.5651                 4.9729                 4.5379
 Frc consts  --      1.3633                 5.2174                 4.9397
 IR Inten    --     15.8595              1474.5284                 0.9817

                     28                     29                     30
                      A                      A                      A
 Frequencies --   1461.9679              1462.7089              1466.6576
 Red. masses --      1.0397                 1.0481                 1.1212
 Frc consts  --      1.3093                 1.3213                 1.4210
 IR Inten    --     25.7040                27.3184                65.1291

                     31                     32                     33
                      A                      A                      A
 Frequencies --   1468.7729              1477.1258              1478.6111
 Red. masses --      1.0656                 1.2451                 1.2909
 Frc consts  --      1.3544                 1.6006                 1.6629
 IR Inten    --     24.6525                46.8265                57.8730

                     34                     35                     36
                      A                      A                      A
 Frequencies --   1791.7067              1913.2743              1916.6137
 Red. masses --     13.9840                12.3614                12.3688
 Frc consts  --     26.4494                26.6608                26.7700
 IR Inten    --      0.0307               402.8232               831.8518

                     37                     38                     39
                      A                      A                      A
 Frequencies --   3091.9777              3093.2152              3197.0324
 Red. masses --      1.0309                 1.0306                 1.1095
 Frc consts  --      5.8070                 5.8098                 6.6815
 IR Inten    --     21.6407                18.6790                 9.8469

                     40                     41                     42
                      A                      A                      A
 Frequencies --   3199.7081              3232.8296              3233.3994
 Red. masses --      1.1098                 1.1101                 1.1098
 Frc consts  --      6.6945                 6.8355                 6.8360
 IR Inten    --      9.6640                 3.7079                 3.6654

 - Thermochemistry -
 -------------------
 Temperature   298.150 Kelvin.  Pressure   1.00000 Atm.
 Atom     1 has atomic number  7 and mass  14.00307

 Molecular mass:   146.03276 amu.
 Principal axes and moments of inertia in atomic units:
                           1         2         3
     Eigenvalues --   449.631793016.976133398.68789
           X            0.99979  -0.02037  -0.00324
           Y            0.02038   0.99978   0.00455
           Z            0.00315  -0.00462   0.99998
 This molecule is an asymmetric top.
 Rotational symmetry number  1.
 Warning -- assumption of classical behavior for rotation
           may cause significant error
 Rotational temperatures (Kelvin)      0.19263     0.02871     0.02548
 Rotational constants (GHZ):           4.01382     0.59820     0.53101
 Zero-point vibrational energy     305468.3 (Joules/Mol)
                                   73.00868 (Kcal/Mol)
 Warning -- explicit consideration of  13 degrees of freedom as
           vibrations may cause significant error
 Vibrational temperatures:     46.50   105.34   126.03   142.98   209.77
          (Kelvin)            216.48   241.28   351.75   378.58   435.24
                              443.86   656.05   859.69   938.95   977.79
                             1215.25  1252.08  1365.25  1398.06  1581.49
                             1589.21  1696.38  1701.21  1746.18  1749.44
                             1919.95  1955.65  2103.44  2104.51  2110.19
                             2113.23  2125.25  2127.39  2577.86  2752.77
                             2757.58  4448.66  4450.44  4599.81  4603.66
                             4651.31  4652.13

 Zero-point correction=                           0.116347 (Hartree/Particle)
 Thermal correction to Energy=                    0.127089
 Thermal correction to Enthalpy=                  0.128033
 Thermal correction to Gibbs Free Energy=         0.078320
 Sum of electronic and zero-point Energies=           -565.620254
 Sum of electronic and thermal Energies=              -565.609512
 Sum of electronic and thermal Enthalpies=            -565.608567
 Sum of electronic and thermal Free Energies=         -565.658280

                     E (Thermal)             CV                S
                      KCal/Mol        Cal/Mol-Kelvin    Cal/Mol-Kelvin
 Total                   79.749             34.690            104.629
 Electronic               0.000              0.000              0.000
 Translational            0.889              2.981             40.847
 Rotational               0.889              2.981             29.912
 Vibrational             77.972             28.728             33.870
 Vibration     1          0.594              1.983              5.682
 Vibration     2          0.599              1.967              4.065
 Vibration     3          0.601              1.958              3.713
 Vibration     4          0.604              1.950              3.467
 Vibration     5          0.617              1.907              2.726
 Vibration     6          0.618              1.902              2.666
 Vibration     7          0.624              1.882              2.461
 Vibration     8          0.660              1.772              1.770
 Vibration     9          0.670              1.740              1.641
 Vibration    10          0.694              1.669              1.403
 Vibration    11          0.698              1.658              1.370
 Vibration    12          0.814              1.348              0.778
 Vibration    13          0.955              1.037              0.454

 Optimization completed.
    -- Stationary point found.
 Normal termination of Gaussian 09 at Wed Sep 16 18:05:38 2020.
