 Gaussian 09, Revision D.01,
 Gaussian 09:  ES64L-G09RevD.01 24-Apr-2013

 ----------------------------------------------------------------------
 # opt freq scrf=(cpcm,solvent=water) geom=connectivity def2svp m062x e
 mpiricaldispersion=gd3
 ----------------------------------------------------------------------

 -------------------
 Title Card Required
 -------------------
 Symbolic Z-matrix:
 Charge =  0 Multiplicity = 3

 SCF Done:  E(UM062X) =  -836.907086617     A.U. after   18 cycles
 SCF Done:  E(UM062X) =  -836.907125619     A.U. after   13 cycles
 SCF Done:  E(UM062X) =  -836.906997929     A.U. after   14 cycles
 SCF Done:  E(UM062X) =  -836.907075938     A.U. after   14 cycles
 SCF Done:  E(UM062X) =  -836.907198447     A.U. after   13 cycles
 SCF Done:  E(UM062X) =  -836.907216989     A.U. after   11 cycles
 SCF Done:  E(UM062X) =  -836.907214549     A.U. after   10 cycles
 SCF Done:  E(UM062X) =  -836.907217099     A.U. after    9 cycles
 SCF Done:  E(UM062X) =  -836.907217279     A.U. after   10 cycles
 SCF Done:  E(UM062X) =  -836.907217467     A.U. after    7 cycles
 SCF Done:  E(UM062X) =  -836.907217452     A.U. after    7 cycles
 Optimization completed.
    -- Stationary point found.
 Normal termination of Gaussian 09 at Mon Jul 12 14:15:38 2021.

 -------------------------------------------------------------------
 #N Geom=AllCheck Guess=TCheck SCRF=Check GenChk UM062X/def2SVP Freq
 -------------------------------------------------------------------

 Structure from the checkpoint file:  "product_cycloaddition_m062x_toluene_2.chk"
 -------------------
 Title Card Required
 -------------------
 Charge =  0 Multiplicity = 3

                         Standard orientation:
 ---------------------------------------------------------------------
 Center     Atomic      Atomic             Coordinates (Angstroms)
 Number     Number       Type             X           Y           Z
 ---------------------------------------------------------------------
      1          6           0        0.348423    0.713473   -0.573630
      2          6           0        0.708311    1.871515    0.405685
      3          6           0       -1.590596    1.751548    0.478096
      4          6           0       -1.107748    1.090684   -0.783381
      5          1           0        0.932751    0.774576   -1.497273
      6          1           0       -1.763221    0.566866   -1.473172
      7          6           0       -0.423374    1.749947    1.460276
      8          1           0       -0.437649    2.617941    2.134187
      9          1           0       -0.370128    0.828555    2.059590
     10          6           0        0.232248    3.046297   -0.407135
     11          1           0        0.579322    4.073724   -0.311968
     12          6           0       -1.146887    2.610882   -0.704722
     13          1           0       -1.864929    3.174218   -1.297177
     14          1           0        1.739758    1.877739    0.770137
     15          1           0       -2.634025    1.691606    0.784899
     16          7           0       -0.207997   -1.287776    0.800490
     17          7           0        0.617261   -0.616309    0.025571
     18          6           0       -1.558866   -1.368175    0.485971
     19          6           0        1.966967   -1.049856    0.124814
     20          8           0        2.304859   -2.044008    0.699815
     21          8           0       -2.432468   -1.268037    1.309822
     22          8           0        2.772407   -0.218883   -0.517886
     23          8           0       -1.761302   -1.721323   -0.786859
     24          6           0       -3.121537   -1.912178   -1.163736
     25          1           0       -3.107781   -2.222687   -2.212339
     26          1           0       -3.586877   -2.685521   -0.539527
     27          1           0       -3.682792   -0.974045   -1.050143
     28          6           0        4.154716   -0.573985   -0.522473
     29          1           0        4.662850    0.201243   -1.101501
     30          1           0        4.539493   -0.601569    0.504463
     31          1           0        4.290466   -1.556955   -0.990318
 ---------------------------------------------------------------------

 SCF Done:  E(UM062X) =  -836.907217452     A.U. after    1 cycles

 The electronic state is 3-A.
 Alpha  occ. eigenvalues --  -19.69786 -19.68549 -19.63801 -19.62680 -14.87015
 Alpha  occ. eigenvalues --  -14.81240 -10.72987 -10.71617 -10.61613 -10.61444
 Alpha  occ. eigenvalues --  -10.61107 -10.57269 -10.57135 -10.57042 -10.56885
 Alpha  occ. eigenvalues --  -10.56670 -10.55998  -1.26092  -1.24222  -1.16416
 Alpha  occ. eigenvalues --   -1.14154  -1.13604  -1.03917  -0.94776  -0.85823
 Alpha  occ. eigenvalues --   -0.83543  -0.83138  -0.80337  -0.79196  -0.70115
 Alpha  occ. eigenvalues --   -0.68531  -0.65233  -0.64742  -0.64220  -0.62721
 Alpha  occ. eigenvalues --   -0.62515  -0.60463  -0.58967  -0.57724  -0.57256
 Alpha  occ. eigenvalues --   -0.57108  -0.54897  -0.52362  -0.51871  -0.50959
 Alpha  occ. eigenvalues --   -0.50054  -0.48923  -0.47301  -0.46214  -0.45137
 Alpha  occ. eigenvalues --   -0.44345  -0.44018  -0.43365  -0.41938  -0.41425
 Alpha  occ. eigenvalues --   -0.39419  -0.39319  -0.38578  -0.38397  -0.36515
 Alpha  occ. eigenvalues --   -0.36074  -0.35032  -0.28794  -0.24650
 Alpha virt. eigenvalues --    0.05951   0.07032   0.09262   0.10480   0.12764
 Alpha virt. eigenvalues --    0.13819   0.14804   0.15285   0.15508   0.16085
 Alpha virt. eigenvalues --    0.16452   0.16953   0.17231   0.17545   0.17851

  Beta  occ. eigenvalues --  -19.69747 -19.68480 -19.63695 -19.62593 -14.86549
  Beta  occ. eigenvalues --  -14.80358 -10.73011 -10.71643 -10.61614 -10.61412
  Beta  occ. eigenvalues --  -10.61102 -10.57216 -10.57162 -10.56965 -10.56931
  Beta  occ. eigenvalues --  -10.55930 -10.55915  -1.25748  -1.23902  -1.15669
  Beta  occ. eigenvalues --   -1.13560  -1.12692  -1.03186  -0.92967  -0.85278
  Beta  occ. eigenvalues --   -0.83281  -0.82549  -0.78786  -0.78292  -0.69247
  Beta  occ. eigenvalues --   -0.67684  -0.64988  -0.64293  -0.63655  -0.62285
  Beta  occ. eigenvalues --   -0.61554  -0.59328  -0.58338  -0.57066  -0.56979
  Beta  occ. eigenvalues --   -0.56728  -0.53844  -0.52076  -0.51422  -0.49739
  Beta  occ. eigenvalues --   -0.49471  -0.48121  -0.46395  -0.45008  -0.44186
  Beta  occ. eigenvalues --   -0.44114  -0.43763  -0.42365  -0.41113  -0.39553
  Beta  occ. eigenvalues --   -0.38869  -0.38467  -0.38200  -0.37511  -0.35420
  Beta  occ. eigenvalues --   -0.34719  -0.33992
  Beta virt. eigenvalues --   -0.07269  -0.00829   0.06652   0.08401   0.09564
  Beta virt. eigenvalues --    0.10506   0.12790   0.13816   0.14854   0.15294
  Beta virt. eigenvalues --    0.15578   0.16246   0.16613   0.17184   0.17485

 Mulliken charges and spin densities:
               1          2
     1  C    0.177601   0.019434
     2  C   -0.253656  -0.063601
     3  C   -0.162673   0.087700
     4  C   -0.105401   0.039686
     5  H    0.067239   0.000991
     6  H    0.061291  -0.001259
     7  C    0.164539   0.039628
     8  H    0.057201  -0.000360
     9  H    0.051415  -0.002372
    10  C    0.071979   1.046954
    11  H    0.047639  -0.037918
    12  C   -0.060620  -0.105816
    13  H    0.055814   0.001536
    14  H    0.056850  -0.000285
    15  H    0.057222  -0.001331
    16  N   -0.156241   0.626819
    17  N   -0.227909   0.243032
    18  C    0.293519  -0.011596
    19  C    0.401392  -0.004495
    20  O   -0.271798   0.052222
    21  O   -0.291545   0.035735
    22  O   -0.360529   0.013193
    23  O   -0.355641   0.017436
    24  C    0.119726   0.002567
    25  H    0.076333   0.001044
    26  H    0.068919   0.000443
    27  H    0.064052   0.000481
    28  C    0.130656  -0.001791
    29  H    0.080011   0.000027
    30  H    0.071461   0.000885
    31  H    0.071153   0.001010
 Sum of Mulliken charges =   0.00000   2.00000

 Dipole moment (field-independent basis, Debye):
    X=              1.5261    Y=              4.4808    Z=             -4.9219  Tot=              6.8287
 Quadrupole moment (field-independent basis, Debye-Ang):
   XX=            -79.7671   YY=           -100.9226   ZZ=           -101.3468
   XY=              3.9569   XZ=              5.8775   YZ=              9.6537

  Exact polarizability: 194.736   8.199 164.268  -5.908  -8.047 146.341
 Approx polarizability: 164.351   3.927 151.505  -8.390  -9.890 145.624

                      1                      2                      3
                      A                      A                      A
 Frequencies --     39.8767                67.4471                72.5913
 Red. masses --      4.4306                 3.8195                 6.0109
 Frc consts  --      0.0042                 0.0102                 0.0187
 IR Inten    --      1.8125                 2.5965                 1.8118

                      4                      5                      6
                      A                      A                      A
 Frequencies --     94.0574               115.6169               128.1691
 Red. masses --      4.9574                 4.1956                 4.3423
 Frc consts  --      0.0258                 0.0330                 0.0420
 IR Inten    --      6.9250                 0.1979                 0.6327

                      7                      8                      9
                      A                      A                      A
 Frequencies --    150.3284               175.4868               180.7204
 Red. masses --      3.6534                 1.1185                 1.8063
 Frc consts  --      0.0486                 0.0203                 0.0348
 IR Inten    --      2.2148                 1.4358                 4.2573

                     10                     11                     12
                      A                      A                      A
 Frequencies --    190.0347               229.6680               240.7046
 Red. masses --      1.7701                 4.7381                 4.5922
 Frc consts  --      0.0377                 0.1473                 0.1568
 IR Inten    --      4.2104                 1.0455                 8.5399

                     13                     14                     15
                      A                      A                      A
 Frequencies --    317.7313               324.5742               345.6533
 Red. masses --      3.9329                 5.1164                 3.7767
 Frc consts  --      0.2339                 0.3176                 0.2659
 IR Inten    --     22.9098                 7.3226                41.5547

                     16                     17                     18
                      A                      A                      A
 Frequencies --    356.5884               369.8844               428.5305
 Red. masses --      2.3403                 2.2102                 5.2189
 Frc consts  --      0.1753                 0.1782                 0.5647
 IR Inten    --      5.2791                 8.1608                 0.4033

                     19                     20                     21
                      A                      A                      A
 Frequencies --    473.4796               482.4490               612.1186
 Red. masses --      3.8152                 3.4083                 6.9349
 Frc consts  --      0.5039                 0.4674                 1.5309
 IR Inten    --      4.4675                 5.0285                22.4739

                     22                     23                     24
                      A                      A                      A
 Frequencies --    622.0622               685.4004               690.5400
 Red. masses --      3.9918                 5.5218                 4.9660
 Frc consts  --      0.9101                 1.5283                 1.3952
 IR Inten    --     23.6064                 1.6237                 0.1263

                     25                     26                     27
                      A                      A                      A
 Frequencies --    706.8703               772.1725               785.2958
 Red. masses --      6.0436                 6.3493                 6.8989
 Frc consts  --      1.7792                 2.2305                 2.5067
 IR Inten    --      2.2956                16.2443                26.0256

                     28                     29                     30
                      A                      A                      A
 Frequencies --    804.9392               816.0279               834.0004
 Red. masses --      3.6576                 1.9573                 5.4001
 Frc consts  --      1.3963                 0.7679                 2.2130
 IR Inten    --     39.6431                10.6881               111.3169

                     31                     32                     33
                      A                      A                      A
 Frequencies --    851.9627               893.2684               908.1460
 Red. masses --      1.6587                 3.5774                 2.9375
 Frc consts  --      0.7093                 1.6818                 1.4274
 IR Inten    --     23.9110                26.6897                43.9851

                     34                     35                     36
                      A                      A                      A
 Frequencies --    913.1621               938.1501               945.5340
 Red. masses --      2.1467                 2.0079                 1.7607
 Frc consts  --      1.0547                 1.0412                 0.9275
 IR Inten    --      2.4222                 1.4492                 4.0122

                     37                     38                     39
                      A                      A                      A
 Frequencies --    963.4451               977.4972              1003.0287
 Red. masses --      3.2297                 1.2638                 2.4558
 Frc consts  --      1.7663                 0.7115                 1.4557
 IR Inten    --     21.9769                 2.8823                 6.0488

                     40                     41                     42
                      A                      A                      A
 Frequencies --   1010.8163              1039.5521              1052.5678
 Red. masses --      2.7938                 1.7574                 1.7683
 Frc consts  --      1.6819                 1.1189                 1.1543
 IR Inten    --      1.7581                 1.1599                16.8827

                     43                     44                     45
                      A                      A                      A
 Frequencies --   1055.2418              1069.4646              1087.6013
 Red. masses --      1.2642                 1.8667                 2.3386
 Frc consts  --      0.8294                 1.2579                 1.6299
 IR Inten    --      9.4981                35.4381                 2.7810

                     46                     47                     48
                      A                      A                      A
 Frequencies --   1137.6699              1143.0080              1172.8290
 Red. masses --      1.3183                 5.3103                 2.7469
 Frc consts  --      1.0053                 4.0876                 2.2262
 IR Inten    --      0.9211                54.4109                20.2448

                     49                     50                     51
                      A                      A                      A
 Frequencies --   1177.5383              1185.7376              1186.5565
 Red. masses --      1.2976                 1.3049                 1.8968
 Frc consts  --      1.0600                 1.0810                 1.5735
 IR Inten    --      3.2220                 3.3471                 0.3300

                     52                     53                     54
                      A                      A                      A
 Frequencies --   1214.6982              1232.6327              1236.9020
 Red. masses --      1.7024                 1.7573                 1.5171
 Frc consts  --      1.4800                 1.5732                 1.3675
 IR Inten    --     13.8187                34.6481                26.7433

                     55                     56                     57
                      A                      A                      A
 Frequencies --   1251.7071              1260.2354              1274.1730
 Red. masses --      1.4657                 4.8409                 2.0407
 Frc consts  --      1.3530                 4.5298                 1.9521
 IR Inten    --     45.5365              1029.8507                42.5378

                     58                     59                     60
                      A                      A                      A
 Frequencies --   1299.2836              1315.3018              1335.5055
 Red. masses --      1.9569                 2.6078                 2.7235
 Frc consts  --      1.9464                 2.6581                 2.8620
 IR Inten    --    151.9829               377.5055               466.7195

                     61                     62                     63
                      A                      A                      A
 Frequencies --   1344.8825              1378.7770              1399.0596
 Red. masses --      2.6641                 1.7724                 3.4063
 Frc consts  --      2.8390                 1.9851                 3.9283
 IR Inten    --    202.2053                46.6820                 5.3943

                     64                     65                     66
                      A                      A                      A
 Frequencies --   1455.6122              1461.7862              1464.7397
 Red. masses --      1.0959                 1.1259                 1.0389
 Frc consts  --      1.3681                 1.4174                 1.3133
 IR Inten    --     27.7414                25.7870                17.2021

                     67                     68                     69
                      A                      A                      A
 Frequencies --   1469.3071              1470.8996              1475.2589
 Red. masses --      1.1019                 1.0914                 1.0859
 Frc consts  --      1.4016                 1.3912                 1.3925
 IR Inten    --     32.2371                25.3653                19.4790

                     70                     71                     72
                      A                      A                      A
 Frequencies --   1481.7040              1546.6820              1846.6986
 Red. masses --      1.2217                 7.5054                12.3350
 Frc consts  --      1.5804                10.5786                24.7846
 IR Inten    --     69.8580                62.4998               658.0636

                     73                     74                     75
                      A                      A                      A
 Frequencies --   1897.4410              3075.0945              3084.0721
 Red. masses --     12.2996                 1.0325                 1.0609
 Frc consts  --     26.0901                 5.7523                 5.9455
 IR Inten    --    640.3537                30.7956                28.5583

                     76                     77                     78
                      A                      A                      A
 Frequencies --   3091.4581              3147.0754              3172.1211
 Red. masses --      1.0312                 1.1089                 1.1079
 Frc consts  --      5.8067                 6.4708                 6.5680
 IR Inten    --     30.9882                17.7104                19.3353

                     79                     80                     81
                      A                      A                      A
 Frequencies --   3174.7258              3183.9477              3194.2344
 Red. masses --      1.0881                 1.0921                 1.1092
 Frc consts  --      6.4617                 6.5230                 6.6679
 IR Inten    --      3.5617                10.1653                12.5487

                     82                     83                     84
                      A                      A                      A
 Frequencies --   3218.2404              3229.1793              3229.7581
 Red. masses --      1.1085                 1.0943                 1.1095
 Frc consts  --      6.7646                 6.7231                 6.8188
 IR Inten    --      8.1802                 1.2291                 5.7304

                     85                     86                     87
                      A                      A                      A
 Frequencies --   3239.7633              3251.6636              3264.0384
 Red. masses --      1.0933                 1.0966                 1.0955
 Frc consts  --      6.7611                 6.8315                 6.8765
 IR Inten    --      3.6796                 8.4166                 1.3759

 - Thermochemistry -
 -------------------
 Temperature   298.150 Kelvin.  Pressure   1.00000 Atm.
 Atom     1 has atomic number  6 and mass  12.00000

 Molecular mass:   238.09536 amu.
 Principal axes and moments of inertia in atomic units:
                           1         2         3
     Eigenvalues --  2839.122693928.888005658.67632
           X            0.99983   0.01629   0.00844
           Y           -0.01647   0.99961   0.02252
           Z           -0.00807  -0.02265   0.99971
 This molecule is an asymmetric top.
 Rotational symmetry number  1.
 Warning -- assumption of classical behavior for rotation
           may cause significant error
 Rotational temperatures (Kelvin)      0.03051     0.02205     0.01531
 Rotational constants (GHZ):           0.63567     0.45935     0.31893
 Zero-point vibrational energy     654922.3 (Joules/Mol)
                                  156.53018 (Kcal/Mol)
 Warning -- explicit consideration of  21 degrees of freedom as
           vibrations may cause significant error
 Vibrational temperatures:     57.37    97.04   104.44   135.33   166.35
          (Kelvin)            184.41   216.29   252.49   260.02   273.42
                              330.44   346.32   457.14   466.99   497.32
                              513.05   532.18   616.56   681.23   694.14
                              880.70   895.01   986.14   993.53  1017.03
                             1110.98  1129.86  1158.13  1174.08  1199.94
                             1225.78  1285.21  1306.62  1313.83  1349.79
                             1360.41  1386.18  1406.40  1443.13  1454.34
                             1495.68  1514.41  1518.26  1538.72  1564.81
                             1636.85  1644.53  1687.44  1694.21  1706.01
                             1707.19  1747.68  1773.48  1779.62  1800.93
                             1813.20  1833.25  1869.38  1892.42  1921.49
                             1934.98  1983.75  2012.93  2094.30  2103.18
                             2107.43  2114.00  2116.29  2122.57  2131.84
                             2225.33  2656.98  2729.99  4424.37  4437.29
                             4447.91  4527.93  4563.97  4567.72  4580.98
                             4595.79  4630.32  4646.06  4646.90  4661.29
                             4678.41  4696.22

 Zero-point correction=                           0.249447 (Hartree/Particle)
 Thermal correction to Energy=                    0.264849
 Thermal correction to Enthalpy=                  0.265793
 Thermal correction to Gibbs Free Energy=         0.205453
 Sum of electronic and zero-point Energies=           -836.657771
 Sum of electronic and thermal Energies=              -836.642369
 Sum of electronic and thermal Enthalpies=            -836.641424
 Sum of electronic and thermal Free Energies=         -836.701764

                     E (Thermal)             CV                S
                      KCal/Mol        Cal/Mol-Kelvin    Cal/Mol-Kelvin
 Total                  166.195             58.431            126.995
 Electronic               0.000              0.000              2.183
 Translational            0.889              2.981             42.304
 Rotational               0.889              2.981             32.512
 Vibrational            164.418             52.469             49.996
 Vibration     1          0.594              1.981              5.265
 Vibration     2          0.598              1.970              4.227
 Vibration     3          0.599              1.967              4.082
 Vibration     4          0.603              1.953              3.574
 Vibration     5          0.608              1.936              3.172
 Vibration     6          0.611              1.925              2.973
 Vibration     7          0.618              1.902              2.668
 Vibration     8          0.627              1.873              2.376
 Vibration     9          0.630              1.866              2.321
 Vibration    10          0.633              1.854              2.227
 Vibration    11          0.652              1.796              1.882
 Vibration    12          0.658              1.778              1.798
 Vibration    13          0.704              1.640              1.322
 Vibration    14          0.709              1.626              1.287
 Vibration    15          0.724              1.584              1.186
 Vibration    16          0.732              1.562              1.137
 Vibration    17          0.742              1.534              1.080
 Vibration    18          0.790              1.408              0.863
 Vibration    19          0.830              1.309              0.728
 Vibration    20          0.839              1.289              0.703
 Vibration    21          0.971              1.006              0.429

 Optimization completed.
    -- Stationary point found.
 Normal termination of Gaussian 09 at Mon Jul 12 14:46:12 2021.
