 Gaussian 09, Revision D.01,
 Gaussian 09:  ES64L-G09RevD.01 24-Apr-2013

 ----------------------------------------------------------------------
 # freq scrf=(cpcm,solvent=toluene) geom=connectivity def2svp empirical
 dispersion=gd3 m062x
 ----------------------------------------------------------------------

 -------------------
 Title Card Required
 -------------------
 Symbolic Z-matrix:
 Charge =  0 Multiplicity = 1

                         Standard orientation:
 ---------------------------------------------------------------------
 Center     Atomic      Atomic             Coordinates (Angstroms)
 Number     Number       Type             X           Y           Z
 ---------------------------------------------------------------------
      1          6           0        2.363715    1.082081    0.645368
      2          6           0        1.940574   -0.347021    0.700044
      3          6           0        0.558473   -0.373783    0.557457
      4          6           0        0.090578    1.033893    0.492213
      5          1           0        2.567431   -1.071457    1.215341
      6          1           0       -0.110560   -1.175657    0.871897
      7          6           0        1.181476    3.278529    0.274265
      8          1           0        0.784987    3.742592    1.188481
      9          1           0        2.208509    3.623449    0.110254
     10          1           0        0.548429    3.557173   -0.578340
     11          7           0        1.216861    1.837667    0.400997
     12          8           0       -1.050432    1.454788    0.501400
     13          8           0        3.469755    1.560731    0.777210
     14          6           0        2.083033   -2.053571   -1.566082
     15          1           0        2.476022   -3.071465   -1.492094
     16          6           0        0.703140   -1.886442   -1.765331
     17          1           0        0.070454   -2.776395   -1.833306
     18          6           0        2.924830   -1.000484   -1.249870
     19          1           0        2.645640    0.001335   -1.589806
     20          6           0        4.377491   -1.196874   -0.940648
     21          1           0        4.661715   -0.647333   -0.034003
     22          1           0        4.603718   -2.259519   -0.778940
     23          1           0        4.999637   -0.824896   -1.768714
     24          6           0        0.095911   -0.650863   -1.640988
     25          1           0        0.687192    0.247439   -1.838574
     26          6           0       -1.392503   -0.461272   -1.779006
     27          1           0       -1.747588   -0.897442   -2.727046
     28          1           0       -1.635473    0.607864   -1.773484
     29          6           0       -3.145270   -0.687642   -0.126964
     30          6           0       -3.913196    0.421967   -0.782754
     31          1           0       -4.179992    0.128395   -1.808249
     32          1           0       -4.815476    0.601443   -0.189521
     33          1           0       -3.302437    1.331596   -0.847498
     34          8           0       -2.034573   -1.139841   -0.701239
     35          8           0       -3.503481   -1.240111    0.892732
     36          1           0        4.465867    0.371295    1.886161
     37          1           0       -2.360045    3.692091   -1.636084
     38          1           0       -2.037843   -2.464990    1.332289
     39          1           0       -5.162889   -0.585469    1.609193
     40          8           0       -1.232528   -2.925736    1.621384
     41          1           0       -1.166385   -2.691503    2.554244
     42          8           0       -5.919910   -0.004756    1.791869
     43          1           0       -5.527217    0.697981    2.322267
     44          8           0       -1.709966    2.981387   -1.668611
     45          1           0       -1.585573    2.711632   -0.743542
     46          8           0        4.675909   -0.450074    2.359778
     47          1           0        5.626142   -0.554044    2.239693
 ---------------------------------------------------------------------

 SCF Done:  E(RM062X) =  -1165.59624991     A.U. after   15 cycles

 The electronic state is 1-A.
 Alpha  occ. eigenvalues --  -19.68865 -19.64766 -19.64468 -19.63982 -19.62794
 Alpha  occ. eigenvalues --  -19.61153 -19.60411 -19.60286 -14.81584 -10.70699
 Alpha  occ. eigenvalues --  -10.69083 -10.68886 -10.62758 -10.59947 -10.59206
 Alpha  occ. eigenvalues --  -10.59177 -10.58144 -10.58022 -10.57114 -10.56575
 Alpha  occ. eigenvalues --  -10.56417 -10.55414  -1.23772  -1.19822  -1.17830
 Alpha  occ. eigenvalues --   -1.14425  -1.10574  -1.09112  -1.08364  -1.08268
 Alpha  occ. eigenvalues --   -1.07172  -0.94299  -0.91047  -0.88519  -0.84410
 Alpha  occ. eigenvalues --   -0.82589  -0.79633  -0.76918  -0.74906  -0.70131
 Alpha  occ. eigenvalues --   -0.69791  -0.66259  -0.63246  -0.62012  -0.61196
 Alpha  occ. eigenvalues --   -0.59981  -0.59565  -0.59081  -0.58665  -0.57802
 Alpha  occ. eigenvalues --   -0.57762  -0.56952  -0.56589  -0.54984  -0.54825
 Alpha  occ. eigenvalues --   -0.53052  -0.52538  -0.51219  -0.50618  -0.50499
 Alpha  occ. eigenvalues --   -0.49752  -0.48539  -0.48459  -0.47889  -0.47274
 Alpha  occ. eigenvalues --   -0.47228  -0.46479  -0.46205  -0.45679  -0.44861
 Alpha  occ. eigenvalues --   -0.44749  -0.44237  -0.43566  -0.42502  -0.41963
 Alpha  occ. eigenvalues --   -0.41737  -0.39002  -0.38460  -0.37995  -0.37600
 Alpha  occ. eigenvalues --   -0.37251  -0.36890  -0.36480  -0.35305  -0.35002
 Alpha  occ. eigenvalues --   -0.30333  -0.29272
 Alpha virt. eigenvalues --   -0.04790  -0.01758   0.04226   0.07109   0.07742
 Alpha virt. eigenvalues --    0.08744   0.09910   0.10198   0.11107   0.11731
 Alpha virt. eigenvalues --    0.12367   0.12623   0.13144   0.13970   0.14291

 Mulliken charges:
               1
     1  C    0.291675
     2  C   -0.131858
     3  C   -0.087636
     4  C    0.285055
     5  H    0.071722
     6  H    0.018563
     7  C    0.059050
     8  H    0.075076
     9  H    0.077379
    10  H    0.065077
    11  N   -0.370536
    12  O   -0.300521
    13  O   -0.285470
    14  C   -0.030814
    15  H    0.040786
    16  C    0.001151
    17  H    0.048482
    18  C   -0.126511
    19  H    0.063724
    20  C    0.037150
    21  H   -0.003593
    22  H    0.050255
    23  H    0.064575
    24  C   -0.138292
    25  H    0.057335
    26  C    0.237035
    27  H    0.078327
    28  H    0.040201
    29  C    0.233325
    30  C   -0.067359
    31  H    0.087327
    32  H    0.053262
    33  H    0.045784
    34  O   -0.333417
    35  O   -0.336397
    36  H    0.189562
    37  H    0.188905
    38  H    0.180580
    39  H    0.185941
    40  O   -0.332443
    41  H    0.181507
    42  O   -0.356470
    43  H    0.176038
    44  O   -0.325591
    45  H    0.198194
    46  O   -0.340642
    47  H    0.184507
 Sum of Mulliken charges =   0.00000

 Dipole moment (field-independent basis, Debye):
    X=              3.2073    Y=              4.0256    Z=             -3.3985  Tot=              6.1678
 Quadrupole moment (field-independent basis, Debye-Ang):
   XX=           -147.9474   YY=           -127.6386   ZZ=           -131.3685
   XY=            -14.3842   XZ=              4.2113   YZ=              6.7363

  Exact polarizability: 269.511 -14.044 208.385   4.113  19.979 182.999
 Approx polarizability: 276.351  -9.228 218.767   3.761  22.859 209.578

 ******    1 imaginary frequencies (negative Signs) ******

                      1                      2                      3
                      A                      A                      A
 Frequencies --   -452.0427                18.6942                31.2480
 Red. masses --      8.6444                 6.0789                 4.8324
 Frc consts  --      1.0407                 0.0013                 0.0028
 IR Inten    --      9.1182                 1.1625                 2.4593

                      4                      5                      6
                      A                      A                      A
 Frequencies --     41.8450                50.9989                60.4124
 Red. masses --      6.0973                 5.5027                 5.0988
 Frc consts  --      0.0063                 0.0084                 0.0110
 IR Inten    --      0.9549                 1.4049                 5.0837

                      7                      8                      9
                      A                      A                      A
 Frequencies --     68.3088                74.1026                78.8092
 Red. masses --      6.3328                 6.3146                 3.1084
 Frc consts  --      0.0174                 0.0204                 0.0114
 IR Inten    --      0.4797                 4.5449                 0.6198

                     10                     11                     12
                      A                      A                      A
 Frequencies --     91.6905               101.5731               111.0894
 Red. masses --      4.8953                 5.1803                 5.3364
 Frc consts  --      0.0242                 0.0315                 0.0388
 IR Inten    --      0.8958                17.3091                 3.2550

                     13                     14                     15
                      A                      A                      A
 Frequencies --    112.7295               124.3912               129.4070
 Red. masses --      4.7077                 2.9119                 1.9835
 Frc consts  --      0.0352                 0.0265                 0.0196
 IR Inten    --      4.7576                 5.9362                 5.6451

                     16                     17                     18
                      A                      A                      A
 Frequencies --    135.1519               146.4458               156.3200
 Red. masses --      4.1340                 1.4176                 6.6285
 Frc consts  --      0.0445                 0.0179                 0.0954
 IR Inten    --      3.3684                 1.8462                11.1336

                     19                     20                     21
                      A                      A                      A
 Frequencies --    158.6419               164.9838               171.4828
 Red. masses --      5.6058                 5.7888                 4.3266
 Frc consts  --      0.0831                 0.0928                 0.0750
 IR Inten    --     14.3644                 4.0379                 9.9546

                     22                     23                     24
                      A                      A                      A
 Frequencies --    179.7967               189.4812               199.4909
 Red. masses --      3.8506                 3.3536                 4.6927
 Frc consts  --      0.0733                 0.0709                 0.1100
 IR Inten    --      2.0678                36.7516                13.3873

                     25                     26                     27
                      A                      A                      A
 Frequencies --    206.5226               213.9245               234.1659
 Red. masses --      1.5331                 2.6513                 3.6248
 Frc consts  --      0.0385                 0.0715                 0.1171
 IR Inten    --     18.1329                30.6593                58.0477

                     28                     29                     30
                      A                      A                      A
 Frequencies --    240.5670               243.8755               249.2377
 Red. masses --      1.1409                 1.1263                 1.2027
 Frc consts  --      0.0389                 0.0395                 0.0440
 IR Inten    --    143.7906                99.7756                91.1082

                     31                     32                     33
                      A                      A                      A
 Frequencies --    255.9766               276.9679               288.1880
 Red. masses --      1.3255                 1.9812                 2.9580
 Frc consts  --      0.0512                 0.0895                 0.1447
 IR Inten    --     54.4593                33.5357                23.7165

                     34                     35                     36
                      A                      A                      A
 Frequencies --    298.5305               300.9117               309.2553
 Red. masses --      1.1007                 3.1159                 2.2034
 Frc consts  --      0.0578                 0.1662                 0.1242
 IR Inten    --     75.6618                22.3508                21.4606

                     37                     38                     39
                      A                      A                      A
 Frequencies --    326.8432               345.6677               363.8989
 Red. masses --      1.0947                 2.1172                 1.3614
 Frc consts  --      0.0689                 0.1490                 0.1062
 IR Inten    --    116.7870                 3.6643               174.8812

                     40                     41                     42
                      A                      A                      A
 Frequencies --    367.3201               393.7933               420.3908
 Red. masses --      1.9734                 1.1098                 7.3364
 Frc consts  --      0.1569                 0.1014                 0.7639
 IR Inten    --     39.3322               185.1526                58.9742

                     43                     44                     45
                      A                      A                      A
 Frequencies --    444.4947               475.4645               494.0772
 Red. masses --      3.7280                 2.9372                 3.2311
 Frc consts  --      0.4340                 0.3912                 0.4647
 IR Inten    --     21.6767                 3.4822                 3.9143

                     46                     47                     48
                      A                      A                      A
 Frequencies --    558.0002               580.6160               603.6699
 Red. masses --      3.8511                 1.7490                 1.2613
 Frc consts  --      0.7065                 0.3474                 0.2708
 IR Inten    --     11.2214                60.0105               220.7611

                     49                     50                     51
                      A                      A                      A
 Frequencies --    610.4298               625.2253               630.6123
 Red. masses --      1.6727                 2.6161                 1.8329
 Frc consts  --      0.3672                 0.6025                 0.4295
 IR Inten    --     40.7235               151.6383                59.7542

                     52                     53                     54
                      A                      A                      A
 Frequencies --    638.9935               649.7786               657.6784
 Red. masses --      2.3930                 1.7509                 1.1232
 Frc consts  --      0.5757                 0.4356                 0.2862
 IR Inten    --    107.1049               192.7981               242.7643

                     55                     56                     57
                      A                      A                      A
 Frequencies --    703.7536               725.7399               753.5592
 Red. masses --      3.3689                 6.5403                 4.3204
 Frc consts  --      0.9831                 2.0296                 1.4455
 IR Inten    --      3.2054                55.5852                19.3218

                     58                     59                     60
                      A                      A                      A
 Frequencies --    778.7112               786.6082               807.9680
 Red. masses --      7.7770                 4.0228                 1.6036
 Frc consts  --      2.7785                 1.4666                 0.6168
 IR Inten    --      3.4920                 4.6497                27.9467

                     61                     62                     63
                      A                      A                      A
 Frequencies --    858.9233               879.5035               930.2443
 Red. masses --      1.8212                 1.9336                 1.5401
 Frc consts  --      0.7916                 0.8812                 0.7852
 IR Inten    --      5.7463                 6.6037                 3.2533

                     64                     65                     66
                      A                      A                      A
 Frequencies --    938.9824               974.5387               986.6973
 Red. masses --      1.6537                 1.5771                 1.6872
 Frc consts  --      0.8590                 0.8825                 0.9678
 IR Inten    --      7.8655                24.2428                70.2015

                     67                     68                     69
                      A                      A                      A
 Frequencies --    989.6373              1023.7960              1034.3306
 Red. masses --      1.2922                 1.1583                 1.2611
 Frc consts  --      0.7457                 0.7153                 0.7949
 IR Inten    --     83.6519                15.6151                 6.6285

                     70                     71                     72
                      A                      A                      A
 Frequencies --   1044.8232              1055.4960              1066.2942
 Red. masses --      1.6773                 1.5665                 1.7532
 Frc consts  --      1.0788                 1.0282                 1.1744
 IR Inten    --     25.2402                17.5480                12.7001

                     73                     74                     75
                      A                      A                      A
 Frequencies --   1077.2612              1081.7931              1121.0126
 Red. masses --      1.4626                 1.3794                 1.9648
 Frc consts  --      1.0000                 0.9511                 1.4547
 IR Inten    --      2.9752                 9.4676                12.5715

                     76                     77                     78
                      A                      A                      A
 Frequencies --   1139.3939              1153.8174              1164.5527
 Red. masses --      2.1454                 1.3477                 3.2837
 Frc consts  --      1.6410                 1.0571                 2.6238
 IR Inten    --     39.0830                 5.3806                38.9472

                     79                     80                     81
                      A                      A                      A
 Frequencies --   1181.0417              1187.7235              1252.9403
 Red. masses --      4.1124                 2.0360                 1.2924
 Frc consts  --      3.3797                 1.6923                 1.1954
 IR Inten    --     69.0648                20.3481                42.2157

                     82                     83                     84
                      A                      A                      A
 Frequencies --   1268.7183              1293.7055              1303.9603
 Red. masses --      1.3069                 1.3463                 3.1605
 Frc consts  --      1.2394                 1.3276                 3.1662
 IR Inten    --     42.7066               127.8639                52.6967

                     85                     86                     87
                      A                      A                      A
 Frequencies --   1315.6204              1338.9112              1350.9229
 Red. masses --      1.3797                 1.8505                 1.4797
 Frc consts  --      1.4070                 1.9545                 1.5910
 IR Inten    --      5.3505                30.9158               161.2689

                     88                     89                     90
                      A                      A                      A
 Frequencies --   1376.9227              1409.5284              1420.6157
 Red. masses --      2.0691                 1.3469                 1.9700
 Frc consts  --      2.3113                 1.5767                 2.3424
 IR Inten    --     16.8927                 7.0021               244.0812

                     91                     92                     93
                      A                      A                      A
 Frequencies --   1424.5248              1439.0579              1452.0483
 Red. masses --      1.5178                 1.1562                 1.0629
 Frc consts  --      1.8147                 1.4107                 1.3204
 IR Inten    --    229.8061                11.3647                24.1273

                     94                     95                     96
                      A                      A                      A
 Frequencies --   1456.7406              1461.2049              1464.0379
 Red. masses --      1.1726                 1.1419                 1.0411
 Frc consts  --      1.4661                 1.4365                 1.3147
 IR Inten    --     11.4561                14.4917                14.9850

                     97                     98                     99
                      A                      A                      A
 Frequencies --   1481.9561              1485.1965              1488.9997
 Red. masses --      1.3181                 2.2426                 1.4009
 Frc consts  --      1.7056                 2.9146                 1.8300
 IR Inten    --     38.2457                46.1908               148.6328

                    100                    101                    102
                      A                      A                      A
 Frequencies --   1508.6914              1510.4013              1614.5045
 Red. masses --      1.1354                 2.3620                 1.0945
 Frc consts  --      1.5227                 3.1747                 1.6809
 IR Inten    --     29.9777               284.1491               263.8504

                    103                    104                    105
                      A                      A                      A
 Frequencies --   1630.4492              1638.3765              1640.0863
 Red. masses --      1.1099                 3.9923                 1.1108
 Frc consts  --      1.7384                 6.3139                 1.7604
 IR Inten    --     93.5248                42.5140               139.2617

                    106                    107                    108
                      A                      A                      A
 Frequencies --   1642.8043              1645.4037              1808.3354
 Red. masses --      1.0864                 4.1215                10.4064
 Frc consts  --      1.7276                 6.5743                20.0497
 IR Inten    --     53.2124                 4.7267              1335.8947

                    109                    110                    111
                      A                      A                      A
 Frequencies --   1835.3813              1879.7324              3060.7912
 Red. masses --     10.6573                11.3511                 1.0398
 Frc consts  --     21.1519                23.6309                 5.7392
 IR Inten    --    550.7454               179.2278                20.1549

                    112                    113                    114
                      A                      A                      A
 Frequencies --   3071.1274              3077.5995              3079.7685
 Red. masses --      1.0344                 1.0403                 1.0657
 Frc consts  --      5.7481                 5.8053                 5.9554
 IR Inten    --     32.1641                 1.9352                19.8769

                    115                    116                    117
                      A                      A                      A
 Frequencies --   3148.4413              3165.7032              3172.5466
 Red. masses --      1.1018                 1.1071                 1.0929
 Frc consts  --      6.4348                 6.5369                 6.4809
 IR Inten    --      5.1189                 5.1600                 3.7069

                    118                    119                    120
                      A                      A                      A
 Frequencies --   3175.2104              3177.1179              3182.3454
 Red. masses --      1.0977                 1.0926                 1.0966
 Frc consts  --      6.5204                 6.4981                 6.5430
 IR Inten    --      0.6478                 5.3123                 4.4203

                    121                    122                    123
                      A                      A                      A
 Frequencies --   3183.6913              3189.6141              3195.7273
 Red. masses --      1.0899                 1.0987                 1.0951
 Frc consts  --      6.5089                 6.5858                 6.5895
 IR Inten    --     13.8933                 5.9659                 5.9910

                    124                    125                    126
                      A                      A                      A
 Frequencies --   3199.9123              3211.1515              3228.0217
 Red. masses --      1.1068                 1.1077                 1.0987
 Frc consts  --      6.6773                 6.7296                 6.7454
 IR Inten    --      0.4713                21.4242               109.7218

                    127                    128                    129
                      A                      A                      A
 Frequencies --   3264.2040              3742.3128              3754.2319
 Red. masses --      1.0986                 1.0570                 1.0566
 Frc consts  --      6.8970                 8.7219                 8.7738
 IR Inten    --     24.9994               358.2450               650.8032

                    130                    131                    132
                      A                      A                      A
 Frequencies --   3760.4537              3765.7013              3920.3912
 Red. masses --      1.0563                 1.0560                 1.0716
 Frc consts  --      8.8005                 8.8227                 9.7038
 IR Inten    --    279.4955               146.3127                88.7132

                    133                    134                    135
                      A                      A                      A
 Frequencies --   3922.7604              3927.9528              3932.9941
 Red. masses --      1.0714                 1.0724                 1.0722
 Frc consts  --      9.7135                 9.7482                 9.7717
 IR Inten    --    110.3436               165.5374               173.8268

 - Thermochemistry -
 -------------------
 Temperature   298.150 Kelvin.  Pressure   1.00000 Atm.
 Atom     1 has atomic number  6 and mass  12.00000

 Molecular mass:   323.15802 amu.
 Principal axes and moments of inertia in atomic units:
                           1         2         3
     Eigenvalues --  4885.43500********************
           X            0.99986  -0.01658   0.00029
           Y            0.01658   0.99973  -0.01599
           Z           -0.00002   0.01599   0.99987
 This molecule is an asymmetric top.
 Rotational symmetry number  1.
 Warning -- assumption of classical behavior for rotation
           may cause significant error
 Rotational temperatures (Kelvin)      0.01773     0.00778     0.00703
 Rotational constants (GHZ):           0.36941     0.16205     0.14648
    1 imaginary frequencies ignored.
 Zero-point vibrational energy    1015019.0 (Joules/Mol)
                                  242.59536 (Kcal/Mol)
 Warning -- explicit consideration of  48 degrees of freedom as
           vibrations may cause significant error
 Vibrational temperatures:     26.90    44.96    60.21    73.38    86.92
          (Kelvin)             98.28   106.62   113.39   131.92   146.14
                              159.83   162.19   178.97   186.19   194.45
                              210.70   224.91   228.25   237.37   246.73
                              258.69   272.62   287.02   297.14   307.79
                              336.91   346.12   350.88   358.60   368.29
                              398.49   414.64   429.52   432.94   444.95
                              470.25   497.34   523.57   528.49   566.58
                              604.85   639.53   684.09   710.87   802.84
                              835.38   868.55   878.27   899.56   907.31
                              919.37   934.89   946.25  1012.54  1044.18
                             1084.20  1120.39  1131.75  1162.48  1235.80
                             1265.41  1338.41  1350.98  1402.14  1419.64
                             1423.87  1473.01  1488.17  1503.27  1518.62
                             1534.16  1549.94  1556.46  1612.89  1639.33
                             1660.08  1675.53  1699.25  1708.87  1802.70
                             1825.40  1861.35  1876.11  1892.88  1926.39
                             1943.67  1981.08  2027.99  2043.95  2049.57
                             2070.48  2089.17  2095.92  2102.35  2106.42
                             2132.20  2136.86  2142.34  2170.67  2173.13
                             2322.91  2345.85  2357.26  2359.72  2363.63
                             2367.37  2601.79  2640.70  2704.51  4403.79
                             4418.66  4427.97  4431.09  4529.90  4554.74
                             4564.58  4568.41  4571.16  4578.68  4580.62
                             4589.14  4597.93  4603.95  4620.13  4644.40
                             4696.46  5384.35  5401.50  5410.45  5418.00
                             5640.56  5643.97  5651.44  5658.69

 Zero-point correction=                           0.386600 (Hartree/Particle)
 Thermal correction to Energy=                    0.417118
 Thermal correction to Enthalpy=                  0.418062
 Thermal correction to Gibbs Free Energy=         0.325254
 Sum of electronic and zero-point Energies=          -1165.209650
 Sum of electronic and thermal Energies=             -1165.179132
 Sum of electronic and thermal Enthalpies=           -1165.178188
 Sum of electronic and thermal Free Energies=        -1165.270996

                     E (Thermal)             CV                S
                      KCal/Mol        Cal/Mol-Kelvin    Cal/Mol-Kelvin
 Total                  261.745            107.144            195.331
 Electronic               0.000              0.000              0.000
 Translational            0.889              2.981             43.214
 Rotational               0.889              2.981             34.860
 Vibrational            259.968            101.183            117.257
 Vibration     1          0.593              1.986              6.768
 Vibration     2          0.594              1.983              5.749
 Vibration     3          0.594              1.980              5.170
 Vibration     4          0.595              1.977              4.778
 Vibration     5          0.597              1.973              4.444
 Vibration     6          0.598              1.969              4.202
 Vibration     7          0.599              1.966              4.041
 Vibration     8          0.600              1.963              3.920
 Vibration     9          0.602              1.955              3.624
 Vibration    10          0.604              1.948              3.424
 Vibration    11          0.607              1.940              3.250
 Vibration    12          0.607              1.939              3.221
 Vibration    13          0.610              1.929              3.031
 Vibration    14          0.612              1.924              2.955
 Vibration    15          0.613              1.918              2.871
 Vibration    16          0.617              1.907              2.718
 Vibration    17          0.620              1.896              2.594
 Vibration    18          0.621              1.893              2.566
 Vibration    19          0.623              1.885              2.492
 Vibration    20          0.626              1.878              2.419
 Vibration    21          0.629              1.867              2.331
 Vibration    22          0.633              1.854              2.233
 Vibration    23          0.638              1.841              2.138
 Vibration    24          0.641              1.831              2.074
 Vibration    25          0.644              1.820              2.010
 Vibration    26          0.654              1.789              1.847
 Vibration    27          0.658              1.778              1.799
 Vibration    28          0.659              1.773              1.774
 Vibration    29          0.662              1.764              1.736
 Vibration    30          0.666              1.753              1.689
 Vibration    31          0.678              1.716              1.552
 Vibration    32          0.685              1.696              1.485
 Vibration    33          0.692              1.676              1.425
 Vibration    34          0.693              1.672              1.412
 Vibration    35          0.699              1.656              1.366
 Vibration    36          0.711              1.622              1.276
 Vibration    37          0.724              1.584              1.186
 Vibration    38          0.737              1.547              1.105
 Vibration    39          0.740              1.539              1.091
 Vibration    40          0.761              1.483              0.986
 Vibration    41          0.783              1.426              0.891
 Vibration    42          0.804              1.373              0.813
 Vibration    43          0.832              1.304              0.722
 Vibration    44          0.850              1.263              0.673
 Vibration    45          0.914              1.122              0.528
 Vibration    46          0.937              1.073              0.484
 Vibration    47          0.962              1.024              0.443
 Vibration    48          0.969              1.010              0.432

 Normal termination of Gaussian 09 at Sun Sep  6 20:47:40 2020.
