 Gaussian 09, Revision D.01,
 Gaussian 09:  ES64L-G09RevD.01 24-Apr-2013

 ----------------------------------------------------------------------
 # opt freq scrf=(cpcm,solvent=toluene) geom=connectivity def2svp m062x
  empiricaldispersion=gd3
 ----------------------------------------------------------------------

 -------------------
 Title Card Required
 -------------------
 Symbolic Z-matrix:
 Charge =  0 Multiplicity = 1

 SCF Done:  E(RM062X) =  -614.621088044     A.U. after   13 cycles
 SCF Done:  E(RM062X) =  -614.621088075     A.U. after    7 cycles
 SCF Done:  E(RM062X) =  -614.621087935     A.U. after    7 cycles
 SCF Done:  E(RM062X) =  -614.621088122     A.U. after    7 cycles
 Optimization completed.
    -- Stationary point found.
 Normal termination of Gaussian 09 at Sun Sep  6 03:42:52 2020.

 -------------------------------------------------------------------
 #N Geom=AllCheck Guess=TCheck SCRF=Check GenChk RM062X/def2SVP Freq
 -------------------------------------------------------------------

 Structure from the checkpoint file:  "m062x_PM6_2H2O_diene_pm6_cpcmtoluene_1_gd3.chk"
 -------------------
 Title Card Required
 -------------------
 Charge =  0 Multiplicity = 1

                         Standard orientation:
 ---------------------------------------------------------------------
 Center     Atomic      Atomic             Coordinates (Angstroms)
 Number     Number       Type             X           Y           Z
 ---------------------------------------------------------------------
      1          6           0       -3.280800    0.444118   -0.374903
      2          1           0       -3.507751    1.325164   -0.985819
      3          6           0       -1.855513    0.111607   -0.224138
      4          1           0       -1.143086    0.941048   -0.285211
      5          6           0       -4.296196   -0.220205    0.193466
      6          1           0       -4.064798   -1.065775    0.852686
      7          6           0       -5.743432    0.115064    0.012794
      8          1           0       -6.225533    0.325509    0.979865
      9          1           0       -5.872318    0.989290   -0.639576
     10          1           0       -6.289113   -0.731551   -0.432882
     11          6           0       -1.383332   -1.125625   -0.028195
     12          1           0       -2.062008   -1.984422   -0.010468
     13          6           0        0.062158   -1.467416    0.153118
     14          1           0        0.390957   -2.152240   -0.645260
     15          1           0        0.218556   -1.982445    1.116431
     16          6           0        2.154410   -0.267430    0.009798
     17          6           0        2.884176   -1.578690   -0.058247
     18          1           0        2.623678   -2.101717   -0.989680
     19          1           0        3.957984   -1.365617   -0.038090
     20          1           0        2.602817   -2.226435    0.782633
     21          8           0        0.829524   -0.271076    0.122965
     22          8           0        2.710426    0.807987   -0.038230
     23          8           0        5.539417    0.329342    0.013614
     24          1           0        4.645229    0.706092    0.044684
     25          1           0        5.770615    0.390685   -0.920228
     26          8           0        0.458426    2.688604    0.169280
     27          1           0        0.146585    2.246093    0.966995
     28          1           0        1.257031    2.178928   -0.039270
 ---------------------------------------------------------------------

 SCF Done:  E(RM062X) =  -614.621088122     A.U. after    1 cycles

 The electronic state is 1-A.
 Alpha  occ. eigenvalues --  -19.69665 -19.64633 -19.60704 -19.59934 -10.71390
 Alpha  occ. eigenvalues --  -10.63536 -10.57542 -10.56454 -10.55857 -10.55732
 Alpha  occ. eigenvalues --  -10.55303 -10.55079  -1.24597  -1.15280  -1.08695
 Alpha  occ. eigenvalues --   -1.07917  -0.91521  -0.87792  -0.85172  -0.81695
 Alpha  occ. eigenvalues --   -0.74824  -0.69546  -0.65372  -0.60891  -0.59955
 Alpha  occ. eigenvalues --   -0.59784  -0.58631  -0.57137  -0.56085  -0.54159
 Alpha  occ. eigenvalues --   -0.52000  -0.51672  -0.48921  -0.48051  -0.47648
 Alpha  occ. eigenvalues --   -0.47096  -0.45818  -0.44977  -0.44596  -0.43281
 Alpha  occ. eigenvalues --   -0.41686  -0.40715  -0.39294  -0.37717  -0.36959
 Alpha  occ. eigenvalues --   -0.36424  -0.36046  -0.28100
 Alpha virt. eigenvalues --    0.00752   0.03390   0.08124   0.10272   0.11210
 Alpha virt. eigenvalues --    0.11819   0.12316   0.13170   0.13471   0.15094
 Alpha virt. eigenvalues --    0.16742   0.17171   0.17671   0.18934   0.19828

 Mulliken charges:
               1
     1  C   -0.040165
     2  H    0.034583
     3  C   -0.019716
     4  H    0.015519
     5  C   -0.141534
     6  H    0.035870
     7  C   -0.033882
     8  H    0.058943
     9  H    0.048891
    10  H    0.059823
    11  C   -0.163916
    12  H    0.048655
    13  C    0.203073
    14  H    0.066773
    15  H    0.072738
    16  C    0.234539
    17  C   -0.099434
    18  H    0.099062
    19  H    0.065213
    20  H    0.088996
    21  O   -0.330664
    22  O   -0.323964
    23  O   -0.354503
    24  H    0.185609
    25  H    0.178303
    26  O   -0.345226
    27  H    0.177141
    28  H    0.179274
 Sum of Mulliken charges =   0.00000

 Dipole moment (field-independent basis, Debye):
    X=             -2.2224    Y=             -6.1778    Z=             -0.5267  Tot=              6.5865
 Quadrupole moment (field-independent basis, Debye-Ang):
   XX=            -80.7359   YY=            -76.9448   ZZ=            -70.8494
   XY=             -4.9163   XZ=            -10.3703   YZ=             -0.4623

  Exact polarizability: 167.100  -4.203 117.453  -6.767  -9.072  81.110
 Approx polarizability: 143.108   0.410 126.689  -8.008 -10.586  89.497

                      1                      2                      3
                      A                      A                      A
 Frequencies --     21.7321                42.3843                46.9410
 Red. masses --      4.9671                 3.2034                 5.9862
 Frc consts  --      0.0014                 0.0034                 0.0078
 IR Inten    --      0.5736                 2.8417                 2.5675

                      4                      5                      6
                      A                      A                      A
 Frequencies --     49.9339                63.0035                96.1279
 Red. masses --      2.6866                 3.4917                 5.0404
 Frc consts  --      0.0039                 0.0082                 0.0274
 IR Inten    --      0.8786                 0.7328                10.1870

                      7                      8                      9
                      A                      A                      A
 Frequencies --    118.4319               126.4527               134.2474
 Red. masses --      4.4078                 3.7175                 2.3962
 Frc consts  --      0.0364                 0.0350                 0.0254
 IR Inten    --      5.2439                 1.5687                 2.7813

                     10                     11                     12
                      A                      A                      A
 Frequencies --    147.6797               151.5810               190.8267
 Red. masses --      3.3400                 4.9881                 1.3446
 Frc consts  --      0.0429                 0.0675                 0.0288
 IR Inten    --     14.4709                 4.1897                38.1504

                     13                     14                     15
                      A                      A                      A
 Frequencies --    195.6158               205.4875               222.0568
 Red. masses --      1.5392                 2.4767                 1.6879
 Frc consts  --      0.0347                 0.0616                 0.0490
 IR Inten    --     45.1111                14.3872                44.6110

                     16                     17                     18
                      A                      A                      A
 Frequencies --    260.4206               263.1706               291.7778
 Red. masses --      1.0877                 3.1174                 1.3445
 Frc consts  --      0.0435                 0.1272                 0.0674
 IR Inten    --     32.9156                12.4472                92.7540

                     19                     20                     21
                      A                      A                      A
 Frequencies --    309.7383               315.4249               352.2737
 Red. masses --      1.0936                 1.1345                 2.3879
 Frc consts  --      0.0618                 0.0665                 0.1746
 IR Inten    --     24.0432               149.4917                14.3371

                     22                     23                     24
                      A                      A                      A
 Frequencies --    373.4914               476.7684               544.2175
 Red. masses --      2.5160                 3.7608                 2.8709
 Frc consts  --      0.2068                 0.5037                 0.5010
 IR Inten    --      4.5645                 5.0191                16.9109

                     25                     26                     27
                      A                      A                      A
 Frequencies --    550.7225               588.0081               608.5571
 Red. masses --      1.2971                 2.1206                 1.0953
 Frc consts  --      0.2318                 0.4320                 0.2390
 IR Inten    --     80.1703                32.0417               458.6608

                     28                     29                     30
                      A                      A                      A
 Frequencies --    628.7976               712.6918               790.3649
 Red. masses --      3.7072                 3.0174                 1.5532
 Frc consts  --      0.8636                 0.9030                 0.5716
 IR Inten    --     16.7913                 8.9571                 3.4449

                     31                     32                     33
                      A                      A                      A
 Frequencies --    852.2587               881.7000               918.1795
 Red. masses --      1.7740                 2.9329                 1.6685
 Frc consts  --      0.7592                 1.3434                 0.8287
 IR Inten    --      4.3843                 0.7518                16.2345

                     34                     35                     36
                      A                      A                      A
 Frequencies --   1001.8238              1010.2661              1027.5943
 Red. masses --      1.2200                 1.8414                 1.6624
 Frc consts  --      0.7215                 1.1073                 1.0343
 IR Inten    --     29.0619                16.1690                17.4150

                     37                     38                     39
                      A                      A                      A
 Frequencies --   1044.4535              1058.0384              1064.9975
 Red. masses --      1.5661                 1.5971                 1.8348
 Frc consts  --      1.0066                 1.0534                 1.2261
 IR Inten    --     20.3218                 0.7757                22.1073

                     40                     41                     42
                      A                      A                      A
 Frequencies --   1075.3239              1100.7323              1140.2587
 Red. masses --      1.2662                 1.5679                 2.4351
 Frc consts  --      0.8626                 1.1192                 1.8654
 IR Inten    --     18.0400                 1.1881                 0.8697

                     43                     44                     45
                      A                      A                      A
 Frequencies --   1182.6246              1277.1234              1292.9060
 Red. masses --      4.5198                 1.0856                 1.4925
 Frc consts  --      3.7245                 1.0432                 1.4700
 IR Inten    --     71.7220                22.8667                11.7563

                     46                     47                     48
                      A                      A                      A
 Frequencies --   1299.9471              1317.7762              1343.8304
 Red. masses --      1.2898                 1.3328                 1.6933
 Frc consts  --      1.2842                 1.3636                 1.8016
 IR Inten    --      0.1138                30.9186               334.1527

                     49                     50                     51
                      A                      A                      A
 Frequencies --   1351.1539              1391.9388              1405.0585
 Red. masses --      1.4663                 1.3719                 1.7461
 Frc consts  --      1.5772                 1.5660                 2.0310
 IR Inten    --     47.7754                 2.7742               347.9231

                     52                     53                     54
                      A                      A                      A
 Frequencies --   1420.4983              1443.6203              1447.7365
 Red. masses --      1.6062                 1.0429                 1.1695
 Frc consts  --      1.9095                 1.2805                 1.4442
 IR Inten    --    131.2881                11.0399                 9.5814

                     55                     56                     57
                      A                      A                      A
 Frequencies --   1455.3480              1470.2804              1484.1162
 Red. masses --      1.0546                 1.0690                 1.1429
 Frc consts  --      1.3160                 1.3616                 1.4832
 IR Inten    --     16.1883                10.2736                 6.5381

                     58                     59                     60
                      A                      A                      A
 Frequencies --   1647.1192              1660.4455              1762.2206
 Red. masses --      1.0768                 1.0790                 7.0433
 Frc consts  --      1.7212                 1.7528                12.8868
 IR Inten    --     68.2253               140.8749                15.3828

                     61                     62                     63
                      A                      A                      A
 Frequencies --   1768.5896              1845.4700              3045.7930
 Red. masses --      5.8097                11.0048                 1.0374
 Frc consts  --     10.7067                22.0823                 5.6703
 IR Inten    --      0.5671               600.8200                29.2099

                     64                     65                     66
                      A                      A                      A
 Frequencies --   3055.8072              3072.0812              3108.3957
 Red. masses --      1.0588                 1.0371                 1.1072
 Frc consts  --      5.8253                 5.7670                 6.3029
 IR Inten    --     27.2107                 9.4448                15.9569

                     67                     68                     69
                      A                      A                      A
 Frequencies --   3120.6091              3147.4555              3160.8295
 Red. masses --      1.1016                 1.0994                 1.0977
 Frc consts  --      6.3207                 6.4167                 6.4615
 IR Inten    --     13.3393                 2.6927                12.7998

                     70                     71                     72
                      A                      A                      A
 Frequencies --   3165.8171              3166.1288              3185.0319
 Red. masses --      1.0884                 1.1023                 1.0963
 Frc consts  --      6.4267                 6.5104                 6.5528
 IR Inten    --     33.5771                 0.4670                14.2721

                     73                     74                     75
                      A                      A                      A
 Frequencies --   3188.4040              3205.9552              3770.1174
 Red. masses --      1.0871                 1.1083                 1.0557
 Frc consts  --      6.5114                 6.7118                 8.8413
 IR Inten    --      3.2033                16.4283               416.1323

                     76                     77                     78
                      A                      A                      A
 Frequencies --   3803.1256              3923.3372              3928.7095
 Red. masses --      1.0551                 1.0721                 1.0717
 Frc consts  --      8.9910                 9.7229                 9.7459
 IR Inten    --    220.0098               131.9516                50.8829

 - Thermochemistry -
 -------------------
 Temperature   298.150 Kelvin.  Pressure   1.00000 Atm.
 Atom     1 has atomic number  6 and mass  12.00000

 Molecular mass:   176.10486 amu.
 Principal axes and moments of inertia in atomic units:
                           1         2         3
     Eigenvalues --   914.149796556.511267383.35445
           X            0.99998  -0.00611  -0.00278
           Y            0.00610   0.99997  -0.00480
           Z            0.00281   0.00478   0.99998
 This molecule is an asymmetric top.
 Rotational symmetry number  1.
 Warning -- assumption of classical behavior for rotation
           may cause significant error
 Rotational temperatures (Kelvin)      0.09475     0.01321     0.01173
 Rotational constants (GHZ):           1.97423     0.27526     0.24443
 Zero-point vibrational energy     618289.6 (Joules/Mol)
                                  147.77477 (Kcal/Mol)
 Warning -- explicit consideration of  27 degrees of freedom as
           vibrations may cause significant error
 Vibrational temperatures:     31.27    60.98    67.54    71.84    90.65
          (Kelvin)            138.31   170.40   181.94   193.15   212.48
                              218.09   274.56   281.45   295.65   319.49
                              374.69   378.64   419.80   445.64   453.83
                              506.84   537.37   685.96   783.01   792.37
                              846.01   875.58   904.70  1025.40  1137.16
                             1226.21  1268.57  1321.05  1441.40  1453.55
                             1478.48  1502.73  1522.28  1532.29  1547.15
                             1583.71  1640.58  1701.53  1837.49  1860.20
                             1870.33  1895.98  1933.47  1944.01  2002.69
                             2021.56  2043.78  2077.04  2082.97  2093.92
                             2115.40  2135.31  2369.83  2389.01  2535.44
                             2544.60  2655.22  4382.21  4396.62  4420.03
                             4472.28  4489.85  4528.48  4547.72  4554.90
                             4555.35  4582.54  4587.40  4612.65  5424.35
                             5471.84  5644.80  5652.53

 Zero-point correction=                           0.235494 (Hartree/Particle)
 Thermal correction to Energy=                    0.253604
 Thermal correction to Enthalpy=                  0.254548
 Thermal correction to Gibbs Free Energy=         0.187840
 Sum of electronic and zero-point Energies=           -614.385594
 Sum of electronic and thermal Energies=              -614.367485
 Sum of electronic and thermal Enthalpies=            -614.366540
 Sum of electronic and thermal Free Energies=         -614.433248

                     E (Thermal)             CV                S
                      KCal/Mol        Cal/Mol-Kelvin    Cal/Mol-Kelvin
 Total                  159.139             60.834            140.399
 Electronic               0.000              0.000              0.000
 Translational            0.889              2.981             41.405
 Rotational               0.889              2.981             32.159
 Vibrational            157.361             54.872             66.834
 Vibration     1          0.593              1.985              6.469
 Vibration     2          0.595              1.980              5.144
 Vibration     3          0.595              1.979              4.942
 Vibration     4          0.595              1.978              4.820
 Vibration     5          0.597              1.972              4.361
 Vibration     6          0.603              1.952              3.531
 Vibration     7          0.609              1.934              3.126
 Vibration     8          0.611              1.927              2.999
 Vibration     9          0.613              1.919              2.884
 Vibration    10          0.617              1.905              2.702
 Vibration    11          0.619              1.901              2.652
 Vibration    12          0.634              1.853              2.220
 Vibration    13          0.636              1.846              2.174
 Vibration    14          0.640              1.832              2.083
 Vibration    15          0.648              1.807              1.942
 Vibration    16          0.668              1.745              1.659
 Vibration    17          0.670              1.740              1.641
 Vibration    18          0.687              1.689              1.464
 Vibration    19          0.699              1.655              1.364
 Vibration    20          0.703              1.644              1.334
 Vibration    21          0.729              1.571              1.156
 Vibration    22          0.745              1.527              1.065
 Vibration    23          0.833              1.302              0.719
 Vibration    24          0.899              1.152              0.556
 Vibration    25          0.906              1.138              0.543
 Vibration    26          0.945              1.057              0.471
 Vibration    27          0.967              1.014              0.435

 Normal termination of Gaussian 09 at Sun Sep  6 03:50:40 2020.
