 Gaussian 09, Revision D.01,
 Gaussian 09:  ES64L-G09RevD.01 24-Apr-2013

 ----------------------------------------------------------------------
 # opt=(calcfc,ts,noeigentest) scrf=(cpcm,solvent=toluene) geom=connect
 ivity def2svp m062x empiricaldispersion=gd3
 ----------------------------------------------------------------------

 -------------------
 Title Card Required
 -------------------
 Symbolic Z-matrix:
 Charge =  0 Multiplicity = 1

 SCF Done:  E(RM062X) =  -1165.59624571     A.U. after   15 cycles

  Exact polarizability:   0.000   0.000   0.000   0.000   0.000   0.000
 Approx polarizability: 276.479  -9.322 218.766   3.576  22.785 209.448

 SCF Done:  E(RM062X) =  -1165.59624964     A.U. after   10 cycles
 SCF Done:  E(RM062X) =  -1165.59624991     A.U. after    7 cycles
 Optimization completed on the basis of negligible forces.
    -- Stationary point found.

                         Standard orientation:
 ---------------------------------------------------------------------
 Center     Atomic      Atomic             Coordinates (Angstroms)
 Number     Number       Type             X           Y           Z
 ---------------------------------------------------------------------
      1          6           0        2.363715    1.082081    0.645368
      2          6           0        1.940574   -0.347021    0.700044
      3          6           0        0.558473   -0.373783    0.557457
      4          6           0        0.090578    1.033893    0.492213
      5          1           0        2.567431   -1.071457    1.215341
      6          1           0       -0.110560   -1.175657    0.871897
      7          6           0        1.181476    3.278529    0.274265
      8          1           0        0.784987    3.742592    1.188481
      9          1           0        2.208509    3.623449    0.110254
     10          1           0        0.548429    3.557173   -0.578340
     11          7           0        1.216861    1.837667    0.400997
     12          8           0       -1.050432    1.454788    0.501400
     13          8           0        3.469755    1.560731    0.777210
     14          6           0        2.083033   -2.053571   -1.566082
     15          1           0        2.476022   -3.071465   -1.492094
     16          6           0        0.703140   -1.886442   -1.765331
     17          1           0        0.070454   -2.776395   -1.833306
     18          6           0        2.924830   -1.000484   -1.249870
     19          1           0        2.645640    0.001335   -1.589806
     20          6           0        4.377491   -1.196874   -0.940648
     21          1           0        4.661715   -0.647333   -0.034003
     22          1           0        4.603718   -2.259519   -0.778940
     23          1           0        4.999637   -0.824896   -1.768714
     24          6           0        0.095911   -0.650863   -1.640988
     25          1           0        0.687192    0.247439   -1.838574
     26          6           0       -1.392503   -0.461272   -1.779006
     27          1           0       -1.747588   -0.897442   -2.727046
     28          1           0       -1.635473    0.607864   -1.773484
     29          6           0       -3.145270   -0.687642   -0.126964
     30          6           0       -3.913196    0.421967   -0.782754
     31          1           0       -4.179992    0.128395   -1.808249
     32          1           0       -4.815476    0.601443   -0.189521
     33          1           0       -3.302437    1.331596   -0.847498
     34          8           0       -2.034573   -1.139841   -0.701239
     35          8           0       -3.503481   -1.240111    0.892732
     36          1           0        4.465867    0.371295    1.886161
     37          1           0       -2.360045    3.692091   -1.636084
     38          1           0       -2.037843   -2.464990    1.332289
     39          1           0       -5.162889   -0.585469    1.609193
     40          8           0       -1.232528   -2.925736    1.621384
     41          1           0       -1.166385   -2.691503    2.554244
     42          8           0       -5.919910   -0.004756    1.791869
     43          1           0       -5.527217    0.697981    2.322267
     44          8           0       -1.709966    2.981387   -1.668611
     45          1           0       -1.585573    2.711632   -0.743542
     46          8           0        4.675909   -0.450074    2.359778
     47          1           0        5.626142   -0.554044    2.239693
 ---------------------------------------------------------------------

 The electronic state is 1-A.
 Alpha  occ. eigenvalues --  -19.68865 -19.64766 -19.64468 -19.63982 -19.62795
 Alpha  occ. eigenvalues --  -19.61153 -19.60411 -19.60286 -14.81584 -10.70699
 Alpha  occ. eigenvalues --  -10.69083 -10.68886 -10.62758 -10.59947 -10.59206
 Alpha  occ. eigenvalues --  -10.59177 -10.58144 -10.58022 -10.57114 -10.56575
 Alpha  occ. eigenvalues --  -10.56417 -10.55414  -1.23772  -1.19822  -1.17830
 Alpha  occ. eigenvalues --   -1.14425  -1.10574  -1.09112  -1.08364  -1.08268
 Alpha  occ. eigenvalues --   -1.07172  -0.94299  -0.91047  -0.88519  -0.84410
 Alpha  occ. eigenvalues --   -0.82589  -0.79633  -0.76918  -0.74906  -0.70131
 Alpha  occ. eigenvalues --   -0.69791  -0.66259  -0.63246  -0.62012  -0.61196
 Alpha  occ. eigenvalues --   -0.59981  -0.59565  -0.59081  -0.58665  -0.57802
 Alpha  occ. eigenvalues --   -0.57762  -0.56952  -0.56589  -0.54984  -0.54825
 Alpha  occ. eigenvalues --   -0.53052  -0.52538  -0.51219  -0.50618  -0.50499
 Alpha  occ. eigenvalues --   -0.49752  -0.48539  -0.48459  -0.47889  -0.47274
 Alpha  occ. eigenvalues --   -0.47228  -0.46479  -0.46205  -0.45679  -0.44861
 Alpha  occ. eigenvalues --   -0.44749  -0.44237  -0.43566  -0.42502  -0.41963
 Alpha  occ. eigenvalues --   -0.41737  -0.39002  -0.38460  -0.37995  -0.37600
 Alpha  occ. eigenvalues --   -0.37251  -0.36890  -0.36480  -0.35305  -0.35002
 Alpha  occ. eigenvalues --   -0.30333  -0.29272
 Alpha virt. eigenvalues --   -0.04790  -0.01758   0.04226   0.07109   0.07742
 Alpha virt. eigenvalues --    0.08744   0.09910   0.10198   0.11107   0.11731
 Alpha virt. eigenvalues --    0.12367   0.12623   0.13144   0.13970   0.14291

 Mulliken charges:
               1
     1  C    0.291676
     2  C   -0.131858
     3  C   -0.087636
     4  C    0.285055
     5  H    0.071722
     6  H    0.018563
     7  C    0.059050
     8  H    0.075076
     9  H    0.077379
    10  H    0.065077
    11  N   -0.370537
    12  O   -0.300520
    13  O   -0.285471
    14  C   -0.030815
    15  H    0.040787
    16  C    0.001150
    17  H    0.048482
    18  C   -0.126511
    19  H    0.063724
    20  C    0.037149
    21  H   -0.003593
    22  H    0.050255
    23  H    0.064575
    24  C   -0.138292
    25  H    0.057335
    26  C    0.237035
    27  H    0.078327
    28  H    0.040200
    29  C    0.233325
    30  C   -0.067359
    31  H    0.087327
    32  H    0.053262
    33  H    0.045784
    34  O   -0.333417
    35  O   -0.336397
    36  H    0.189562
    37  H    0.188905
    38  H    0.180580
    39  H    0.185941
    40  O   -0.332443
    41  H    0.181507
    42  O   -0.356470
    43  H    0.176038
    44  O   -0.325592
    45  H    0.198194
    46  O   -0.340643
    47  H    0.184508
 Sum of Mulliken charges =   0.00000

 Dipole moment (field-independent basis, Debye):
    X=              3.2073    Y=              4.0256    Z=             -3.3985  Tot=              6.1678
 Quadrupole moment (field-independent basis, Debye-Ang):
   XX=           -147.9475   YY=           -127.6387   ZZ=           -131.3685
   XY=            -14.3842   XZ=              4.2113   YZ=              6.7363

 Normal termination of Gaussian 09 at Sun Sep  6 04:58:14 2020.
