 Gaussian 09, Revision D.01,
 Gaussian 09:  ES64L-G09RevD.01 24-Apr-2013

 ----------------------------------------------------------------------
 # opt freq scrf=(cpcm,solvent=toluene) geom=connectivity def2svp m062x
  empiricaldispersion=gd3
 ----------------------------------------------------------------------

 -------------------
 Title Card Required
 -------------------
 Symbolic Z-matrix:
 Charge =  0 Multiplicity = 1

 SCF Done:  E(RM062X) =  -550.972289041     A.U. after   13 cycles
 SCF Done:  E(RM062X) =  -550.972289071     A.U. after    7 cycles
 SCF Done:  E(RM062X) =  -550.972289097     A.U. after    8 cycles
 SCF Done:  E(RM062X) =  -550.972289153     A.U. after    7 cycles
 Optimization completed.
    -- Stationary point found.
 Normal termination of Gaussian 09 at Sun Sep  6 03:41:34 2020.

 -------------------------------------------------------------------
 #N Geom=AllCheck Guess=TCheck SCRF=Check GenChk RM062X/def2SVP Freq
 -------------------------------------------------------------------

 Structure from the checkpoint file:  "m062x_PM6_2H2O_dienophile_pm6_cpcmtoluene_1_gd3.chk"
 -------------------
 Title Card Required
 -------------------
 Charge =  0 Multiplicity = 1

                         Standard orientation:
 ---------------------------------------------------------------------
 Center     Atomic      Atomic             Coordinates (Angstroms)
 Number     Number       Type             X           Y           Z
 ---------------------------------------------------------------------
      1          6           0        1.136658    0.356480   -0.037773
      2          6           0        0.662468   -1.070672   -0.105610
      3          6           0       -0.671671   -1.064988   -0.104524
      4          6           0       -1.136745    0.365373   -0.035736
      5          1           0        1.376587   -1.892070   -0.146655
      6          1           0       -1.393074   -1.880131   -0.144782
      7          6           0        0.021158    2.597955    0.062898
      8          1           0       -1.015271    2.936007    0.173778
      9          1           0        0.614913    2.930828    0.923766
     10          1           0        0.449640    3.021995   -0.854898
     11          7           0        0.004076    1.153307   -0.001190
     12          8           0       -2.269390    0.781867   -0.013737
     13          8           0        2.269870    0.772259   -0.017614
     14          8           0       -3.714829   -1.713018   -0.004768
     15          1           0       -3.872237   -1.806380    0.941896
     16          1           0       -3.491712   -0.773749   -0.099361
     17          8           0        3.700777   -1.729139   -0.002238
     18          1           0        3.482831   -0.788778   -0.098782
     19          1           0        3.857169   -1.821508    0.944687
 ---------------------------------------------------------------------

 SCF Done:  E(RM062X) =  -550.972289153     A.U. after    1 cycles

 The electronic state is 1-A.
 Alpha  occ. eigenvalues --  -19.65750 -19.65698 -19.61234 -19.61213 -14.82053
 Alpha  occ. eigenvalues --  -10.69857 -10.69718 -10.60405 -10.59481 -10.59381
 Alpha  occ. eigenvalues --   -1.20886  -1.18998  -1.09292  -1.09215  -1.08158
 Alpha  occ. eigenvalues --   -0.93391  -0.80778  -0.77150  -0.70644  -0.64346
 Alpha  occ. eigenvalues --   -0.59716  -0.58808  -0.58567  -0.58456  -0.55884
 Alpha  occ. eigenvalues --   -0.53627  -0.52920  -0.51144  -0.49825  -0.49416
 Alpha  occ. eigenvalues --   -0.47770  -0.45267  -0.45035  -0.39335  -0.38306
 Alpha  occ. eigenvalues --   -0.37715  -0.37573  -0.35728  -0.34707
 Alpha virt. eigenvalues --   -0.06805   0.09154   0.10065   0.10541   0.11247
 Alpha virt. eigenvalues --    0.11379   0.15581   0.16288   0.18068   0.18868
 Alpha virt. eigenvalues --    0.20392   0.20876   0.21619   0.24173   0.28152

 Mulliken charges:
               1
     1  C    0.284811
     2  C   -0.049622
     3  C   -0.060993
     4  C    0.293221
     5  H    0.061382
     6  H    0.061516
     7  C    0.066857
     8  H    0.079458
     9  H    0.077155
    10  H    0.079960
    11  N   -0.393827
    12  O   -0.259195
    13  O   -0.260579
    14  O   -0.354935
    15  H    0.179700
    16  H    0.185424
    17  O   -0.355292
    18  H    0.185362
    19  H    0.179599
 Sum of Mulliken charges =   0.00000

 Dipole moment (field-independent basis, Debye):
    X=             -0.0281    Y=              2.0199    Z=              2.9567  Tot=              3.5809
 Quadrupole moment (field-independent basis, Debye-Ang):
   XX=            -75.8954   YY=            -58.0005   ZZ=            -54.8776
   XY=             -0.0358   XZ=             -0.0254   YZ=             -5.8291

  Exact polarizability: 115.016   0.605  80.723  -0.018  -0.432  49.233
 Approx polarizability: 129.600   0.568  78.092  -0.018  -0.358  55.010

                      1                      2                      3
                      A                      A                      A
 Frequencies --     44.3108                53.9741                90.3074
 Red. masses --      4.6848                 8.5212                 2.6455
 Frc consts  --      0.0054                 0.0146                 0.0127
 IR Inten    --      0.8331                 1.3167                 0.5341

                      4                      5                      6
                      A                      A                      A
 Frequencies --     92.5009               138.6734               148.9277
 Red. masses --      1.3864                 5.6236                 5.6462
 Frc consts  --      0.0070                 0.0637                 0.0738
 IR Inten    --      0.2027                33.7558                 5.1272

                      7                      8                      9
                      A                      A                      A
 Frequencies --    154.0940               158.5129               194.5381
 Red. masses --      6.1833                 6.2740                 3.7397
 Frc consts  --      0.0865                 0.0929                 0.0834
 IR Inten    --      3.0745                 1.2510                 6.0872

                     10                     11                     12
                      A                      A                      A
 Frequencies --    243.9682               253.2685               277.8496
 Red. masses --      1.1279                 1.1003                 1.6581
 Frc consts  --      0.0396                 0.0416                 0.0754
 IR Inten    --    284.5210                 0.7266                16.0082

                     13                     14                     15
                      A                      A                      A
 Frequencies --    288.3638               296.3619               315.4740
 Red. masses --      2.2170                 1.1133                 2.1727
 Frc consts  --      0.1086                 0.0576                 0.1274
 IR Inten    --      8.2364               189.0448                18.9519

                     16                     17                     18
                      A                      A                      A
 Frequencies --    416.6429               573.9325               587.5307
 Red. masses --      8.3655                 1.2225                 1.2715
 Frc consts  --      0.8556                 0.2373                 0.2586
 IR Inten    --     42.1234               627.1349                11.9732

                     19                     20                     21
                      A                      A                      A
 Frequencies --    601.2299               633.0038               665.6769
 Red. masses --      2.5228                 3.7330                 2.4458
 Frc consts  --      0.5373                 0.8813                 0.6386
 IR Inten    --    183.1214                 1.3995                 1.3162

                     22                     23                     24
                      A                      A                      A
 Frequencies --    714.8628               764.5317               776.4316
 Red. masses --      6.8729                 5.2678                 8.5243
 Frc consts  --      2.0694                 1.8141                 3.0277
 IR Inten    --     27.4726                 0.4923                 0.0262

                     25                     26                     27
                      A                      A                      A
 Frequencies --    887.0129               977.8393              1040.4638
 Red. masses --      1.7876                 1.9295                 1.2567
 Frc consts  --      0.8286                 1.0870                 0.8015
 IR Inten    --     85.6365                26.9334                 0.0208

                     28                     29                     30
                      A                      A                      A
 Frequencies --   1054.3949              1140.2862              1146.5087
 Red. masses --      1.2961                 2.1813                 1.3159
 Frc consts  --      0.8490                 1.6711                 1.0191
 IR Inten    --     10.9360                39.2053                 1.1431

                     31                     32                     33
                      A                      A                      A
 Frequencies --   1174.8342              1315.0319              1317.5495
 Red. masses --      3.5426                 2.3933                 2.7052
 Frc consts  --      2.8808                 2.4385                 2.7669
 IR Inten    --      7.3650                91.1294                 6.9822

                     34                     35                     36
                      A                      A                      A
 Frequencies --   1421.4222              1461.4523              1481.9535
 Red. masses --      1.2882                 1.0448                 1.1662
 Frc consts  --      1.5335                 1.3148                 1.5091
 IR Inten    --     20.4693                18.5917                78.5552

                     37                     38                     39
                      A                      A                      A
 Frequencies --   1518.6047              1641.2797              1641.9471
 Red. masses --      4.5315                 1.0780                 1.0778
 Frc consts  --      6.1572                 1.7110                 1.7120
 IR Inten    --    288.5927                42.8520               117.6214

                     40                     41                     42
                      A                      A                      A
 Frequencies --   1692.3514              1846.4770              1922.7902
 Red. masses --      6.7403                12.2112                11.8439
 Frc consts  --     11.3739                24.5300                25.7993
 IR Inten    --      6.3090              1301.7912                 4.2021

                     43                     44                     45
                      A                      A                      A
 Frequencies --   3079.7012              3175.3787              3201.0300
 Red. masses --      1.0333                 1.1080                 1.1069
 Frc consts  --      5.7744                 6.5826                 6.6828
 IR Inten    --     25.0481                 7.3342                 0.1413

                     46                     47                     48
                      A                      A                      A
 Frequencies --   3252.9686              3271.3914              3788.2347
 Red. masses --      1.0927                 1.1140                 1.0545
 Frc consts  --      6.8124                 7.0242                 8.9158
 IR Inten    --     47.8148                24.1378               207.7906

                     49                     50                     51
                      A                      A                      A
 Frequencies --   3790.4754              3924.6336              3925.1790
 Red. masses --      1.0542                 1.0732                 1.0734
 Frc consts  --      8.9238                 9.7390                 9.7435
 IR Inten    --    319.2559                71.1360               165.3476

 - Thermochemistry -
 -------------------
 Temperature   298.150 Kelvin.  Pressure   1.00000 Atm.
 Atom     1 has atomic number  6 and mass  12.00000

 Molecular mass:   147.05316 amu.
 Principal axes and moments of inertia in atomic units:
                           1         2         3
     Eigenvalues --  1034.138372536.118463543.08832
           X            1.00000   0.00028  -0.00001
           Y           -0.00028   0.99997  -0.00716
           Z            0.00001   0.00716   0.99997
 This molecule is an asymmetric top.
 Rotational symmetry number  1.
 Warning -- assumption of classical behavior for rotation
           may cause significant error
 Rotational temperatures (Kelvin)      0.08375     0.03415     0.02445
 Rotational constants (GHZ):           1.74516     0.71162     0.50937
 Zero-point vibrational energy     386251.2 (Joules/Mol)
                                   92.31626 (Kcal/Mol)
 Warning -- explicit consideration of  19 degrees of freedom as
           vibrations may cause significant error
 Vibrational temperatures:     63.75    77.66   129.93   133.09   199.52
          (Kelvin)            214.27   221.71   228.06   279.90   351.02
                              364.40   399.76   414.89   426.40   453.90
                              599.46   825.76   845.32   865.03   910.75
                              957.76  1028.53  1099.99  1117.11  1276.21
                             1406.89  1496.99  1517.04  1640.62  1649.57
                             1690.32  1892.04  1895.66  2045.11  2102.70
                             2132.20  2184.93  2361.43  2362.39  2434.91
                             2656.67  2766.46  4431.00  4568.66  4605.56
                             4680.29  4706.80  5450.42  5453.64  5646.67
                             5647.45

 Zero-point correction=                           0.147115 (Hartree/Particle)
 Thermal correction to Energy=                    0.160570
 Thermal correction to Enthalpy=                  0.161515
 Thermal correction to Gibbs Free Energy=         0.106816
 Sum of electronic and zero-point Energies=           -550.825174
 Sum of electronic and thermal Energies=              -550.811719
 Sum of electronic and thermal Enthalpies=            -550.810775
 Sum of electronic and thermal Free Energies=         -550.865473

                     E (Thermal)             CV                S
                      KCal/Mol        Cal/Mol-Kelvin    Cal/Mol-Kelvin
 Total                  100.759             45.289            115.123
 Electronic               0.000              0.000              0.000
 Translational            0.889              2.981             40.868
 Rotational               0.889              2.981             30.609
 Vibrational             98.982             39.327             43.647
 Vibration     1          0.595              1.980              5.056
 Vibration     2          0.596              1.976              4.666
 Vibration     3          0.602              1.956              3.653
 Vibration     4          0.602              1.955              3.606
 Vibration     5          0.614              1.915              2.822
 Vibration     6          0.618              1.904              2.686
 Vibration     7          0.620              1.898              2.621
 Vibration     8          0.621              1.893              2.567
 Vibration     9          0.635              1.847              2.184
 Vibration    10          0.659              1.773              1.774
 Vibration    11          0.664              1.757              1.708
 Vibration    12          0.679              1.714              1.547
 Vibration    13          0.685              1.695              1.484
 Vibration    14          0.690              1.681              1.437
 Vibration    15          0.703              1.644              1.333
 Vibration    16          0.780              1.434              0.903
 Vibration    17          0.930              1.088              0.497
 Vibration    18          0.945              1.058              0.472
 Vibration    19          0.959              1.029              0.448

 Normal termination of Gaussian 09 at Sun Sep  6 03:45:22 2020.
