 Gaussian 09, Revision D.01,
 Gaussian 09:  ES64L-G09RevD.01 24-Apr-2013

 ----------------------------------------------------------------------
 # opt=tight freq scrf=(cpcm,solvent=nitromethane) def2svp m062x int=(g
 rid=ultrafine)
 ----------------------------------------------------------------------

 --------------
 HSO4- opt freq
 --------------
 Symbolic Z-matrix:
 Charge = -1 Multiplicity = 1

 SCF Done:  E(RM062X) =  -699.294182892     A.U. after   11 cycles
 SCF Done:  E(RM062X) =  -699.295637588     A.U. after   10 cycles
 SCF Done:  E(RM062X) =  -699.295703477     A.U. after   10 cycles
 SCF Done:  E(RM062X) =  -699.295753552     A.U. after    9 cycles
 SCF Done:  E(RM062X) =  -699.295759417     A.U. after    8 cycles
 SCF Done:  E(RM062X) =  -699.295757046     A.U. after    8 cycles
 SCF Done:  E(RM062X) =  -699.295757946     A.U. after    7 cycles
 SCF Done:  E(RM062X) =  -699.295757813     A.U. after    7 cycles
 SCF Done:  E(RM062X) =  -699.295757661     A.U. after    8 cycles
 SCF Done:  E(RM062X) =  -699.295757573     A.U. after    8 cycles
 SCF Done:  E(RM062X) =  -699.295757844     A.U. after    8 cycles
 SCF Done:  E(RM062X) =  -699.295757904     A.U. after    6 cycles
 Optimization completed.
    -- Stationary point found.
 Normal termination of Gaussian 09 at Wed Sep 28 11:13:15 2022.

 -------------------------------------------------------------------
 #N Geom=AllCheck Guess=TCheck SCRF=Check GenChk RM062X/def2SVP Freq
 -------------------------------------------------------------------

 Structure from the checkpoint file:  "HSO4_opt_2.chk"
 --------------
 HSO4- opt freq
 --------------
 Charge = -1 Multiplicity = 1

                         Standard orientation:
 ---------------------------------------------------------------------
 Center     Atomic      Atomic             Coordinates (Angstroms)
 Number     Number       Type             X           Y           Z
 ---------------------------------------------------------------------
      1         16           0        0.136738   -0.024805    0.000002
      2          8           0       -1.441711    0.455380   -0.000016
      3          1           0       -1.991530   -0.342280   -0.000011
      4          8           0        0.833996    1.260946    0.000015
      5          8           0        0.291606   -0.811960   -1.228719
      6          8           0        0.291574   -0.811971    1.228718
 ---------------------------------------------------------------------

 SCF Done:  E(RM062X) =  -699.295757904     A.U. after    1 cycles

 The electronic state is 1-A.
 Alpha  occ. eigenvalues --  -90.11691 -19.63374 -19.57446 -19.57321 -19.57317
 Alpha  occ. eigenvalues --   -8.44337  -6.36913  -6.36740  -6.36724  -1.23307
 Alpha  occ. eigenvalues --   -1.09582  -1.06029  -1.05680  -0.67676  -0.57618
 Alpha  occ. eigenvalues --   -0.53105  -0.52074  -0.47876  -0.42179  -0.38936
 Alpha  occ. eigenvalues --   -0.38553  -0.37950  -0.34170  -0.32800  -0.30552
 Alpha virt. eigenvalues --    0.11974   0.19692   0.22926   0.27791   0.28755
 Alpha virt. eigenvalues --    0.43754   0.63158   0.73687   0.74871   0.75625
 Alpha virt. eigenvalues --    0.76095   0.76767   0.93425   0.93753   0.93877

 Mulliken charges:
               1
     1  S    1.136720
     2  O   -0.458596
     3  H    0.213809
     4  O   -0.628734
     5  O   -0.631600
     6  O   -0.631599
 Sum of Mulliken charges =  -1.00000

 Dipole moment (field-independent basis, Debye):
    X=             -3.3143    Y=             -0.9085    Z=              0.0000  Tot=              3.4366
 Quadrupole moment (field-independent basis, Debye-Ang):
   XX=            -34.8757   YY=            -43.5256   ZZ=            -43.7923
   XY=              1.6860   XZ=              0.0001   YZ=              0.0000

  Exact polarizability:  29.126   2.431  30.222   0.000   0.000  28.546
 Approx polarizability:  28.187   2.697  33.454   0.000   0.000  31.334

                      1                      2                      3
                      A                      A                      A
 Frequencies --    150.7767               398.1155               420.9927
 Red. masses --      1.1411                 8.1797                 7.7453
 Frc consts  --      0.0153                 0.7638                 0.8088
 IR Inten    --    129.3339                 7.7133                18.8335

                      4                      5                      6
                      A                      A                      A
 Frequencies --    547.0095               565.8797               570.3999
 Red. masses --      8.9295                17.8751                15.9667
 Frc consts  --      1.5742                 3.3725                 3.0607
 IR Inten    --     83.8588                88.1696                53.5801

                      7                      8                      9
                      A                      A                      A
 Frequencies --    787.5204              1077.5855              1124.2896
 Red. masses --     17.1334                15.7317                 1.2457
 Frc consts  --      6.2606                10.7629                 0.9277
 IR Inten    --    375.2547               155.4407                84.2987

                     10                     11                     12
                      A                      A                      A
 Frequencies --   1276.3806              1305.5220              3836.3290
 Red. masses --     20.5083                 9.9413                 1.0662
 Frc consts  --     19.6852                 9.9830                 9.2449
 IR Inten    --    545.8439               528.5336               134.5037

 - Thermochemistry -
 -------------------
 Temperature   298.150 Kelvin.  Pressure   1.00000 Atm.
 Atom     1 has atomic number 16 and mass  31.97207

 Molecular mass:    96.95956 amu.
 Principal axes and moments of inertia in atomic units:
                           1         2         3
     Eigenvalues --   350.06673 357.77132 362.89723
           X            0.94187   0.33598   0.00001
           Y           -0.33598   0.94187   0.00001
           Z           -0.00001  -0.00001   1.00000
 This molecule is an asymmetric top.
 Rotational symmetry number  1.
 Rotational temperatures (Kelvin)      0.24742     0.24209     0.23867
 Rotational constants (GHZ):           5.15542     5.04440     4.97315
 Zero-point vibrational energy      72139.6 (Joules/Mol)
                                   17.24178 (Kcal/Mol)
 Warning -- explicit consideration of   6 degrees of freedom as
           vibrations may cause significant error
 Vibrational temperatures:    216.93   572.80   605.71   787.02   814.17
          (Kelvin)            820.68  1133.06  1550.40  1617.60  1836.42
                             1878.35  5519.61

 Zero-point correction=                           0.027477 (Hartree/Particle)
 Thermal correction to Energy=                    0.032255
 Thermal correction to Enthalpy=                  0.033200
 Thermal correction to Gibbs Free Energy=        -0.000741
 Sum of electronic and zero-point Energies=           -699.268281
 Sum of electronic and thermal Energies=              -699.263503
 Sum of electronic and thermal Enthalpies=            -699.262558
 Sum of electronic and thermal Free Energies=         -699.296499

                     E (Thermal)             CV                S
                      KCal/Mol        Cal/Mol-Kelvin    Cal/Mol-Kelvin
 Total                   20.241             15.645             71.434
 Electronic               0.000              0.000              0.000
 Translational            0.889              2.981             39.626
 Rotational               0.889              2.981             25.322
 Vibrational             18.463              9.684              6.486
 Vibration     1          0.618              1.902              2.662
 Vibration     2          0.764              1.474              0.970
 Vibration     3          0.783              1.425              0.889
 Vibration     4          0.902              1.146              0.550
 Vibration     5          0.922              1.105              0.512
 Vibration     6          0.927              1.095              0.503

 Optimization completed.
    -- Stationary point found.
 Normal termination of Gaussian 09 at Wed Sep 28 11:13:46 2022.
