 Gaussian 09, Revision D.01,
 Gaussian 09:  ES64L-G09RevD.01 24-Apr-2013

 -----------------------------------------------------
 # freq scrf=(cpcm,solvent=nitromethane) def2svp m062x
 -----------------------------------------------------

 -----------------------
 MeNO2 + isatin TS4 freq
 -----------------------
 Symbolic Z-matrix:
 Charge = -1 Multiplicity = 1

                         Standard orientation:
 ---------------------------------------------------------------------
 Center     Atomic      Atomic             Coordinates (Angstroms)
 Number     Number       Type             X           Y           Z
 ---------------------------------------------------------------------
      1          7           0        0.476048    0.946281    1.872451
      2          8           0        0.976228    2.028948    1.552056
      3          8           0        1.298407   -0.112689    1.970228
      4          6           0       -0.781735    0.712541    2.131164
      5          1           0       -1.452637    1.565748    2.101250
      6          1           0       -1.065250   -0.296348    2.411643
      7          1           0        2.206597    0.153827    1.530622
      8          6           0       -4.842052   -1.248777    0.209926
      9          6           0       -4.361315    0.012944   -0.163062
     10          6           0       -3.001452    0.125643   -0.419501
     11          6           0       -2.149155   -0.989698   -0.300560
     12          6           0       -2.636343   -2.237562    0.069593
     13          6           0       -4.003073   -2.362334    0.326713
     14          1           0       -5.907580   -1.362202    0.416256
     15          1           0       -5.031713    0.868006   -0.245849
     16          1           0       -1.958226   -3.087911    0.155761
     17          1           0       -4.419596   -3.325583    0.620531
     18          6           0       -0.799173   -0.518781   -0.622836
     19          6           0       -0.959207    0.992596   -0.944233
     20          7           0       -2.292299    1.272665   -0.799300
     21          8           0       -0.069892    1.730652   -1.281307
     22          8           0        0.259285   -1.095839   -0.685540
     23          6           0       -2.879053    2.579235   -0.988823
     24          1           0       -3.655633    2.544860   -1.765592
     25          1           0       -3.319641    2.946779   -0.050834
     26          1           0       -2.079367    3.258570   -1.304795
     27          1           0        1.773775   -0.184848   -1.176730
     28          8           0        2.683963    0.084565   -1.431834
     29         16           0        3.729120   -0.490492   -0.342703
     30          8           0        3.379197   -1.893463   -0.131016
     31          8           0        3.497502    0.337412    0.883838
     32          8           0        5.029367   -0.224646   -0.940347
 ---------------------------------------------------------------------

 SCF Done:  E(RM062X) =  -1495.79428581     A.U. after   15 cycles

 The electronic state is 1-A.
 Alpha  occ. eigenvalues --  -90.13476 -19.66886 -19.65750 -19.64074 -19.63735
 Alpha  occ. eigenvalues --  -19.61700 -19.59817 -19.58767 -19.58712 -14.96089
 Alpha  occ. eigenvalues --  -14.81849 -10.67913 -10.67235 -10.62449 -10.59737
 Alpha  occ. eigenvalues --  -10.58553 -10.58274 -10.58218 -10.57616 -10.57592
 Alpha  occ. eigenvalues --  -10.56894  -8.46084  -6.38639  -6.38511  -6.38488
 Alpha  occ. eigenvalues --   -1.30053  -1.25039  -1.20115  -1.17319  -1.12341
 Alpha  occ. eigenvalues --   -1.10556  -1.09163  -1.07735  -1.07405  -0.96695
 Alpha  occ. eigenvalues --   -0.93683  -0.89527  -0.85642  -0.81684  -0.76297
 Alpha  occ. eigenvalues --   -0.71212  -0.70806  -0.68960  -0.68070  -0.65735
 Alpha  occ. eigenvalues --   -0.62332  -0.60791  -0.59996  -0.59684  -0.59190
 Alpha  occ. eigenvalues --   -0.58397  -0.56713  -0.55941  -0.54959  -0.54598
 Alpha  occ. eigenvalues --   -0.53810  -0.52531  -0.52224  -0.52067  -0.50999
 Alpha  occ. eigenvalues --   -0.49269  -0.48379  -0.48232  -0.46930  -0.46883
 Alpha  occ. eigenvalues --   -0.45835  -0.44718  -0.43336  -0.43006  -0.40914
 Alpha  occ. eigenvalues --   -0.40445  -0.39794  -0.39562  -0.38738  -0.38181
 Alpha  occ. eigenvalues --   -0.35513  -0.34998  -0.34217  -0.33328  -0.33280
 Alpha  occ. eigenvalues --   -0.32455  -0.28646  -0.28241
 Alpha virt. eigenvalues --   -0.06958   0.01038   0.03128   0.04324   0.09669
 Alpha virt. eigenvalues --    0.11265   0.13057   0.13326   0.14874   0.15419
 Alpha virt. eigenvalues --    0.15782   0.17115   0.17812   0.19104   0.19450

 Mulliken charges:
               1
     1  N    0.208506
     2  O   -0.406992
     3  O   -0.294113
     4  C   -0.033626
     5  H    0.083490
     6  H    0.085054
     7  H    0.242733
     8  C   -0.003406
     9  C   -0.077760
    10  C    0.176000
    11  C   -0.048973
    12  C   -0.012458
    13  C   -0.029639
    14  H    0.056892
    15  H    0.034251
    16  H    0.044775
    17  H    0.048040
    18  C    0.131071
    19  C    0.190273
    20  N   -0.350743
    21  O   -0.226504
    22  O   -0.221507
    23  C    0.057321
    24  H    0.083671
    25  H    0.083546
    26  H    0.082298
    27  H    0.211316
    28  O   -0.449581
    29  S    1.161990
    30  O   -0.600523
    31  O   -0.627810
    32  O   -0.597592
 Sum of Mulliken charges =  -1.00000

 Dipole moment (field-independent basis, Debye):
    X=            -27.5812    Y=              0.0439    Z=              0.7675  Tot=             27.5919
 Quadrupole moment (field-independent basis, Debye-Ang):
   XX=           -176.8241   YY=           -134.8902   ZZ=           -137.6117
   XY=              1.1439   XZ=              5.6520   YZ=             -5.1544

  Exact polarizability: 286.463  20.574 218.435 -25.891 -20.363 131.757
 Approx polarizability: 268.147  19.087 216.841 -27.408 -20.974 133.330

 ******    1 imaginary frequencies (negative Signs) ******

                      1                      2                      3
                      A                      A                      A
 Frequencies --    -20.0336                30.7802                36.5316
 Red. masses --      9.0758                 7.8754                 7.8113
 Frc consts  --      0.0021                 0.0044                 0.0061
 IR Inten    --      0.8547                 0.5230                 0.2637

                      4                      5                      6
                      A                      A                      A
 Frequencies --     53.7740                55.8669                70.3847
 Red. masses --      7.5499                 6.6436                11.8912
 Frc consts  --      0.0129                 0.0122                 0.0347
 IR Inten    --      1.0149                 0.0888                 2.8482

                      7                      8                      9
                      A                      A                      A
 Frequencies --     79.5490               108.3051               111.0491
 Red. masses --      7.8629                 6.7267                 7.4955
 Frc consts  --      0.0293                 0.0465                 0.0545
 IR Inten    --      5.6887                 9.3882                 0.4168

                     10                     11                     12
                      A                      A                      A
 Frequencies --    115.7865               123.5353               132.2845
 Red. masses --      8.0203                 4.9297                 2.2971
 Frc consts  --      0.0634                 0.0443                 0.0237
 IR Inten    --      2.6309                 0.1671                 3.2190

                     13                     14                     15
                      A                      A                      A
 Frequencies --    141.3109               147.7385               173.8323
 Red. masses --      2.0907                 2.4788                 6.3948
 Frc consts  --      0.0246                 0.0319                 0.1139
 IR Inten    --      0.8732                 1.1365                 1.3623

                     16                     17                     18
                      A                      A                      A
 Frequencies --    240.6766               245.3673               299.9566
 Red. masses --      3.2735                 7.4253                 5.4098
 Frc consts  --      0.1117                 0.2634                 0.2868
 IR Inten    --      1.6504               109.5799                 0.5920

                     19                     20                     21
                      A                      A                      A
 Frequencies --    313.5094               332.3379               400.5756
 Red. masses --      5.4403                 7.9844                 7.2513
 Frc consts  --      0.3150                 0.5196                 0.6855
 IR Inten    --      8.0734                30.6488                 4.1540

                     22                     23                     24
                      A                      A                      A
 Frequencies --    414.8526               415.6724               491.6177
 Red. masses --      4.8920                 4.7849                 6.3103
 Frc consts  --      0.4960                 0.4871                 0.8986
 IR Inten    --     10.9505                22.9774                34.1628

                     25                     26                     27
                      A                      A                      A
 Frequencies --    496.0191               542.6626               543.5326
 Red. masses --      5.7429                 3.6469                 3.8819
 Frc consts  --      0.8325                 0.6327                 0.6757
 IR Inten    --     39.1808                57.3779                11.5055

                     28                     29                     30
                      A                      A                      A
 Frequencies --    552.1786               560.1080               570.0896
 Red. masses --      4.6487                 4.8387                 9.4772
 Frc consts  --      0.8351                 0.8944                 1.8148
 IR Inten    --    218.9177                52.8428                16.0488

                     31                     32                     33
                      A                      A                      A
 Frequencies --    573.0564               592.1772               604.4527
 Red. masses --      4.0475                 2.5362                 3.6043
 Frc consts  --      0.7831                 0.5240                 0.7759
 IR Inten    --     17.6346               102.0834               143.2724

                     34                     35                     36
                      A                      A                      A
 Frequencies --    658.4544               667.4582               704.8908
 Red. masses --      6.7684                 1.1165                 6.0174
 Frc consts  --      1.7290                 0.2931                 1.7616
 IR Inten    --     11.0695                 5.1097                 4.0642

                     37                     38                     39
                      A                      A                      A
 Frequencies --    716.7652               723.7291               753.0559
 Red. masses --      1.6380                 5.6680                 2.5087
 Frc consts  --      0.4958                 1.7492                 0.8382
 IR Inten    --     63.2851                10.7989                10.5242

                     40                     41                     42
                      A                      A                      A
 Frequencies --    778.1087               781.7915               835.8357
 Red. masses --      3.1958                 1.7227                 4.8164
 Frc consts  --      1.1400                 0.6204                 1.9825
 IR Inten    --    114.1324                68.2005                 4.9833

                     43                     44                     45
                      A                      A                      A
 Frequencies --    850.4358               886.8949               905.9623
 Red. masses --     16.3505                 4.4665                 1.4829
 Frc consts  --      6.9673                 2.0699                 0.7171
 IR Inten    --    334.1080                34.4385                 4.1527

                     46                     47                     48
                      A                      A                      A
 Frequencies --    989.5143               998.3393               999.3618
 Red. masses --      3.8456                 1.8674                 2.3160
 Frc consts  --      2.2185                 1.0966                 1.3628
 IR Inten    --     90.4903                 4.7803                 8.0198

                     49                     50                     51
                      A                      A                      A
 Frequencies --   1041.5378              1047.2535              1049.1246
 Red. masses --      1.3631                11.2134                 1.7784
 Frc consts  --      0.8712                 7.2459                 1.1533
 IR Inten    --      0.3364               294.6455                12.9272

                     52                     53                     54
                      A                      A                      A
 Frequencies --   1083.4236              1101.3877              1111.1477
 Red. masses --      4.8131                 1.1237                 1.8903
 Frc consts  --      3.3287                 0.8031                 1.3751
 IR Inten    --      7.6246               280.6905                83.3952

                     55                     56                     57
                      A                      A                      A
 Frequencies --   1122.4514              1138.5564              1140.4133
 Red. masses --      1.6600                 1.6474                 1.3681
 Frc consts  --      1.2323                 1.2582                 1.0483
 IR Inten    --     85.1680                74.4275                13.6543

                     58                     59                     60
                      A                      A                      A
 Frequencies --   1165.5328              1200.3201              1227.0544
 Red. masses --      1.2625                 6.5900                 2.4625
 Frc consts  --      1.0105                 5.5941                 2.1845
 IR Inten    --     66.3607               939.5558                54.1388

                     61                     62                     63
                      A                      A                      A
 Frequencies --   1237.0995              1286.6066              1346.2699
 Red. masses --      1.5039                 2.3988                 2.7513
 Frc consts  --      1.3561                 2.3396                 2.9380
 IR Inten    --     70.1016                 2.9120               481.6343

                     64                     65                     66
                      A                      A                      A
 Frequencies --   1349.9728              1362.4476              1380.6670
 Red. masses --      2.6043                 2.3528                 5.0819
 Frc consts  --      2.7964                 2.5732                 5.7076
 IR Inten    --    106.4112               284.7260               124.1315

                     67                     68                     69
                      A                      A                      A
 Frequencies --   1418.0485              1441.7360              1453.8105
 Red. masses --      1.7970                 1.8342                 2.5511
 Frc consts  --      2.1290                 2.2463                 3.1768
 IR Inten    --     92.4899                60.3827               154.5675

                     70                     71                     72
                      A                      A                      A
 Frequencies --   1455.8704              1479.4613              1480.8636
 Red. masses --      1.0372                 1.1238                 1.3308
 Frc consts  --      1.2953                 1.4492                 1.7194
 IR Inten    --     20.1893                54.1973               463.7361

                     73                     74                     75
                      A                      A                      A
 Frequencies --   1528.5785              1551.0152              1690.6673
 Red. masses --      3.5119                 4.1938                 7.6181
 Frc consts  --      4.8347                 5.9442                12.8296
 IR Inten    --    263.4792                93.1529                56.2359

                     76                     77                     78
                      A                      A                      A
 Frequencies --   1712.5925              1750.4240              1885.8552
 Red. masses --      8.0215                 3.6035                12.9440
 Frc consts  --     13.8616                 6.5052                27.1229
 IR Inten    --    663.2777               310.1146               605.9703

                     79                     80                     81
                      A                      A                      A
 Frequencies --   1899.5809              2446.8911              3063.3615
 Red. masses --     12.4102                 1.1104                 1.0343
 Frc consts  --     26.3841                 3.9171                 5.7186
 IR Inten    --    694.3052              4170.8466                39.3454

                     82                     83                     84
                      A                      A                      A
 Frequencies --   3154.0582              3196.1747              3215.3648
 Red. masses --      1.1082                 1.1052                 1.0885
 Frc consts  --      6.4955                 6.6520                 6.6307
 IR Inten    --     12.5617                 0.0168                 1.1382

                     85                     86                     87
                      A                      A                      A
 Frequencies --   3219.2744              3222.3962              3232.2838
 Red. masses --      1.0513                 1.0931                 1.0973
 Frc consts  --      6.4195                 6.6873                 6.7547
 IR Inten    --     22.6544                 0.9222                 5.1642

                     88                     89                     90
                      A                      A                      A
 Frequencies --   3237.2593              3370.5117              3550.9757
 Red. masses --      1.0993                 1.1302                 1.0682
 Frc consts  --      6.7875                 7.5651                 7.9357
 IR Inten    --      1.1931                 7.3695              1817.4228

 - Thermochemistry -
 -------------------
 Temperature   298.150 Kelvin.  Pressure   1.00000 Atm.
 Atom     1 has atomic number  7 and mass  14.00307

 Molecular mass:   319.02361 amu.
 Principal axes and moments of inertia in atomic units:
                           1         2         3
     Eigenvalues --  3246.86269********************
           X            1.00000  -0.00172   0.00028
           Y            0.00173   0.99879  -0.04908
           Z           -0.00020   0.04908   0.99879
 This molecule is an asymmetric top.
 Rotational symmetry number  1.
 Warning -- assumption of classical behavior for rotation
           may cause significant error
 Rotational temperatures (Kelvin)      0.02668     0.00803     0.00756
 Rotational constants (GHZ):           0.55584     0.16724     0.15758
    1 imaginary frequencies ignored.
 Zero-point vibrational energy     591364.9 (Joules/Mol)
                                  141.33960 (Kcal/Mol)
 Warning -- explicit consideration of  32 degrees of freedom as
           vibrations may cause significant error
 Vibrational temperatures:     44.29    52.56    77.37    80.38   101.27
          (Kelvin)            114.45   155.83   159.77   166.59   177.74
                              190.33   203.31   212.56   250.11   346.28
                              353.03   431.57   451.07   478.16   576.34
                              596.88   598.06   707.33   713.66   780.77
                              782.02   794.46   805.87   820.23   824.50
                              852.01   869.67   947.37   960.32  1014.18
                             1031.26  1041.28  1083.48  1119.52  1124.82
                             1202.58  1223.59  1276.04  1303.48  1423.69
                             1436.39  1437.86  1498.54  1506.76  1509.45
                             1558.80  1584.65  1598.69  1614.96  1638.13
                             1640.80  1676.94  1726.99  1765.46  1779.91
                             1851.14  1936.98  1942.31  1960.26  1986.47
                             2040.25  2074.33  2091.71  2094.67  2128.61
                             2130.63  2199.28  2231.56  2432.49  2464.04
                             2518.47  2713.32  2733.07  3520.53  4407.49
                             4537.98  4598.58  4626.19  4631.81  4636.30
                             4650.53  4657.69  4849.41  5109.06

 Zero-point correction=                           0.225239 (Hartree/Particle)
 Thermal correction to Energy=                    0.245019
 Thermal correction to Enthalpy=                  0.245963
 Thermal correction to Gibbs Free Energy=         0.174896
 Sum of electronic and zero-point Energies=          -1495.569047
 Sum of electronic and thermal Energies=             -1495.549267
 Sum of electronic and thermal Enthalpies=           -1495.548322
 Sum of electronic and thermal Free Energies=        -1495.619390

                     E (Thermal)             CV                S
                      KCal/Mol        Cal/Mol-Kelvin    Cal/Mol-Kelvin
 Total                  153.752             71.799            149.574
 Electronic               0.000              0.000              0.000
 Translational            0.889              2.981             43.176
 Rotational               0.889              2.981             34.350
 Vibrational            151.974             65.838             72.048
 Vibration     1          0.594              1.984              5.779
 Vibration     2          0.594              1.982              5.439
 Vibration     3          0.596              1.976              4.674
 Vibration     4          0.596              1.975              4.598
 Vibration     5          0.598              1.968              4.143
 Vibration     6          0.600              1.963              3.902
 Vibration     7          0.606              1.943              3.299
 Vibration     8          0.607              1.940              3.250
 Vibration     9          0.608              1.936              3.170
 Vibration    10          0.610              1.929              3.044
 Vibration    11          0.612              1.921              2.913
 Vibration    12          0.615              1.912              2.786
 Vibration    13          0.617              1.905              2.701
 Vibration    14          0.627              1.875              2.394
 Vibration    15          0.658              1.778              1.798
 Vibration    16          0.660              1.770              1.764
 Vibration    17          0.692              1.674              1.417
 Vibration    18          0.701              1.648              1.344
 Vibration    19          0.714              1.611              1.249
 Vibration    20          0.766              1.469              0.961
 Vibration    21          0.778              1.438              0.910
 Vibration    22          0.779              1.436              0.907
 Vibration    23          0.847              1.269              0.679
 Vibration    24          0.852              1.259              0.668
 Vibration    25          0.898              1.156              0.560
 Vibration    26          0.899              1.154              0.558
 Vibration    27          0.908              1.135              0.540
 Vibration    28          0.916              1.118              0.524
 Vibration    29          0.926              1.096              0.504
 Vibration    30          0.929              1.090              0.498
 Vibration    31          0.950              1.048              0.463
 Vibration    32          0.963              1.022              0.442

 Normal termination of Gaussian 09 at Wed Aug  4 15:29:11 2021.
