 Gaussian 09, Revision D.01,
 Gaussian 09:  ES64L-G09RevD.01 24-Apr-2013

 -----------------------------------------------------
 # freq scrf=(cpcm,solvent=nitromethane) def2svp m062x
 -----------------------------------------------------

 ------------------------
 henry sulfate ts4 - freq
 ------------------------
 Symbolic Z-matrix:
 Charge = -1 Multiplicity = 1

                         Standard orientation:
 ---------------------------------------------------------------------
 Center     Atomic      Atomic             Coordinates (Angstroms)
 Number     Number       Type             X           Y           Z
 ---------------------------------------------------------------------
      1          7           0        0.512578    0.692574    1.900884
      2          8           0        0.685117    1.905811    1.817685
      3          8           0        1.511258   -0.099889    1.865953
      4          6           0       -0.718465    0.133771    1.925954
      5          1           0       -1.536825    0.826075    2.108826
      6          1           0       -0.747172   -0.904639    2.239172
      7          1           0        2.559925    0.469831    1.130171
      8          6           0       -4.946324   -1.000081   -0.126470
      9          6           0       -4.326575    0.226643   -0.397928
     10          6           0       -2.937079    0.251962   -0.417213
     11          6           0       -2.187075   -0.910755   -0.158246
     12          6           0       -2.809264   -2.123014    0.099643
     13          6           0       -4.207650   -2.162092    0.114921
     14          1           0       -6.036330   -1.046325   -0.108831
     15          1           0       -4.915351    1.123001   -0.593027
     16          1           0       -2.213147   -3.017479    0.288667
     17          1           0       -4.725023   -3.100510    0.315153
     18          6           0       -0.760674   -0.530712   -0.259500
     19          6           0       -0.775328    0.953010   -0.662323
     20          7           0       -2.097396    1.337705   -0.680328
     21          8           0        0.191054    1.625823   -0.927350
     22          8           0        0.219833   -1.263758   -0.414125
     23          6           0       -2.548219    2.675517   -0.981274
     24          1           0       -3.162689    2.686415   -1.893081
     25          1           0       -3.135592    3.084434   -0.146874
     26          1           0       -1.659089    3.296800   -1.137398
     27          1           0        1.527091   -0.758830   -0.962314
     28          8           0        2.396315   -0.488312   -1.443341
     29         16           0        3.632760   -0.448924   -0.477102
     30          8           0        3.342147    0.757178    0.468413
     31          8           0        4.778693   -0.108220   -1.289535
     32          8           0        3.664793   -1.675313    0.300286
 ---------------------------------------------------------------------

 SCF Done:  E(RM062X) =  -1495.78442869     A.U. after   15 cycles

 The electronic state is 1-A.
 Alpha  occ. eigenvalues --  -90.15890 -19.64513 -19.64063 -19.63750 -19.63529
 Alpha  occ. eigenvalues --  -19.63061 -19.62662 -19.60945 -19.60896 -14.96850
 Alpha  occ. eigenvalues --  -14.80909 -10.66745 -10.66293 -10.61171 -10.59252
 Alpha  occ. eigenvalues --  -10.58017 -10.57379 -10.57107 -10.56865 -10.56815
 Alpha  occ. eigenvalues --  -10.56173  -8.48530  -6.41052  -6.40990  -6.40928
 Alpha  occ. eigenvalues --   -1.31339  -1.27665  -1.18085  -1.15195  -1.13044
 Alpha  occ. eigenvalues --   -1.11808  -1.10965  -1.10266  -1.08055  -0.95714
 Alpha  occ. eigenvalues --   -0.91153  -0.88420  -0.84704  -0.80788  -0.75736
 Alpha  occ. eigenvalues --   -0.73053  -0.69862  -0.68357  -0.67267  -0.65282
 Alpha  occ. eigenvalues --   -0.64546  -0.61495  -0.60288  -0.59084  -0.58678
 Alpha  occ. eigenvalues --   -0.58540  -0.57514  -0.56244  -0.55316  -0.54698
 Alpha  occ. eigenvalues --   -0.53417  -0.51625  -0.51313  -0.51083  -0.50121
 Alpha  occ. eigenvalues --   -0.49844  -0.48550  -0.48157  -0.46311  -0.45779
 Alpha  occ. eigenvalues --   -0.44730  -0.44472  -0.43908  -0.42294  -0.42085
 Alpha  occ. eigenvalues --   -0.41881  -0.40069  -0.39219  -0.37696  -0.37409
 Alpha  occ. eigenvalues --   -0.36514  -0.36061  -0.35837  -0.34769  -0.32680
 Alpha  occ. eigenvalues --   -0.32283  -0.27890  -0.26876
 Alpha virt. eigenvalues --   -0.05306   0.01699   0.03692   0.05361   0.10228
 Alpha virt. eigenvalues --    0.11641   0.13081   0.13629   0.15617   0.16072
 Alpha virt. eigenvalues --    0.16745   0.17774   0.18395   0.18754   0.19656

 Mulliken charges:
               1
     1  N    0.234275
     2  O   -0.359505
     3  O   -0.422343
     4  C    0.000312
     5  H    0.079558
     6  H    0.068953
     7  H    0.251846
     8  C   -0.017383
     9  C   -0.087285
    10  C    0.165083
    11  C    0.015582
    12  C   -0.041175
    13  C   -0.033654
    14  H    0.047279
    15  H    0.025898
    16  H    0.034584
    17  H    0.040144
    18  C    0.029810
    19  C    0.219819
    20  N   -0.342902
    21  O   -0.247457
    22  O   -0.331779
    23  C    0.060169
    24  H    0.077627
    25  H    0.077084
    26  H    0.077454
    27  H    0.258098
    28  O   -0.457253
    29  S    1.170160
    30  O   -0.478970
    31  O   -0.554840
    32  O   -0.559190
 Sum of Mulliken charges =  -1.00000

 Dipole moment (field-independent basis, Debye):
    X=            -21.2616    Y=              0.3736    Z=              0.4416  Tot=             21.2694
 Quadrupole moment (field-independent basis, Debye-Ang):
   XX=           -169.0394   YY=           -134.7393   ZZ=           -139.4157
   XY=             -0.3545   XZ=              7.0483   YZ=             -5.1622

  Exact polarizability: 300.834  30.541 226.957  14.507  -1.856 161.554
 Approx polarizability: 267.492  23.115 233.240   4.618  -2.691 161.663

 ******    2 imaginary frequencies (negative Signs) ******

                      1                      2                      3
                      A                      A                      A
 Frequencies --   -210.6845               -25.5648                49.1818
 Red. masses --      7.9454                 8.4854                 6.5928
 Frc consts  --      0.2078                 0.0033                 0.0094
 IR Inten    --    429.6397                 0.5347                 1.2954

                      4                      5                      6
                      A                      A                      A
 Frequencies --     56.3517                68.6110                86.9137
 Red. masses --      8.5621                 8.1293                 9.1660
 Frc consts  --      0.0160                 0.0225                 0.0408
 IR Inten    --      4.0811                 1.7127                 3.2626

                      7                      8                      9
                      A                      A                      A
 Frequencies --     91.8447               116.5484               125.0003
 Red. masses --      5.4839                 3.1850                 3.2468
 Frc consts  --      0.0273                 0.0255                 0.0299
 IR Inten    --      7.9062                 1.0486                 0.6929

                     10                     11                     12
                      A                      A                      A
 Frequencies --    137.9204               146.3599               154.7965
 Red. masses --      2.1848                 2.5784                10.7402
 Frc consts  --      0.0245                 0.0325                 0.1516
 IR Inten    --      0.6498                 6.5515                 1.5347

                     13                     14                     15
                      A                      A                      A
 Frequencies --    170.3974               180.7202               217.9121
 Red. masses --      8.7819                 8.8805                 6.0171
 Frc consts  --      0.1502                 0.1709                 0.1683
 IR Inten    --     23.1590                27.4855                 2.2628

                     16                     17                     18
                      A                      A                      A
 Frequencies --    248.7258               282.4668               311.9230
 Red. masses --      3.4841                 7.0908                 5.6775
 Frc consts  --      0.1270                 0.3333                 0.3255
 IR Inten    --     16.7038                59.8304                13.2836

                     19                     20                     21
                      A                      A                      A
 Frequencies --    330.5518               344.6598               395.2759
 Red. masses --      6.3067                 9.2574                 4.6279
 Frc consts  --      0.4060                 0.6479                 0.4260
 IR Inten    --     15.1090               158.4791               131.5010

                     22                     23                     24
                      A                      A                      A
 Frequencies --    404.2336               424.3679               486.6305
 Red. masses --     10.9170                 5.3651                 4.1795
 Frc consts  --      1.0510                 0.5693                 0.5831
 IR Inten    --     33.2918                28.3744               133.3797

                     25                     26                     27
                      A                      A                      A
 Frequencies --    497.6214               538.1461               546.8705
 Red. masses --      7.2160                 9.7113                 6.1750
 Frc consts  --      1.0528                 1.6570                 1.0881
 IR Inten    --     20.7930               112.1919                39.9580

                     28                     29                     30
                      A                      A                      A
 Frequencies --    547.5596               554.0833               579.4057
 Red. masses --      9.9459                 4.3073                 6.7020
 Frc consts  --      1.7569                 0.7791                 1.3256
 IR Inten    --    114.6243                45.1582                70.2172

                     31                     32                     33
                      A                      A                      A
 Frequencies --    583.0370               592.3031               699.6856
 Red. masses --      3.9690                 3.4213                 3.5967
 Frc consts  --      0.7949                 0.7072                 1.0374
 IR Inten    --     76.1256                56.3461                 6.4349

                     34                     35                     36
                      A                      A                      A
 Frequencies --    705.8570               727.3180               731.1734
 Red. masses --      3.6020                 6.4358                 5.1901
 Frc consts  --      1.0574                 2.0059                 1.6348
 IR Inten    --     15.2055                46.4667                60.0999

                     37                     38                     39
                      A                      A                      A
 Frequencies --    750.9081               773.7882               784.7097
 Red. masses --      1.4374                 2.0394                 1.7234
 Frc consts  --      0.4775                 0.7195                 0.6253
 IR Inten    --    266.7399                54.3615                73.6671

                     40                     41                     42
                      A                      A                      A
 Frequencies --    801.5917               844.3338               880.6101
 Red. masses --      4.9329                 2.3294                 3.4687
 Frc consts  --      1.8675                 0.9784                 1.5848
 IR Inten    --     25.1581               137.6798                17.3794

                     43                     44                     45
                      A                      A                      A
 Frequencies --    901.8519               925.9265               944.4715
 Red. masses --      1.4556                 8.6583                 1.3581
 Frc consts  --      0.6975                 4.3735                 0.7138
 IR Inten    --      2.4029                60.8100               109.3901

                     46                     47                     48
                      A                      A                      A
 Frequencies --    964.8941               988.3343              1011.4483
 Red. masses --      9.0511                 1.3969                 3.1569
 Frc consts  --      4.9649                 0.8039                 1.9028
 IR Inten    --    403.9241                 0.9087                54.5321

                     49                     50                     51
                      A                      A                      A
 Frequencies --   1035.8604              1046.2739              1074.3990
 Red. masses --      1.3391                 1.7432                 2.3765
 Frc consts  --      0.8466                 1.1243                 1.6163
 IR Inten    --      0.7244                22.3016                37.3462

                     52                     53                     54
                      A                      A                      A
 Frequencies --   1085.2128              1097.4921              1122.8636
 Red. masses --      4.2981                 1.3298                 1.7123
 Frc consts  --      2.9823                 0.9437                 1.2720
 IR Inten    --     23.9101               709.5244               108.9492

                     55                     56                     57
                      A                      A                      A
 Frequencies --   1132.4732              1140.2260              1141.8624
 Red. masses --      1.7253                 1.3169                 1.6886
 Frc consts  --      1.3037                 1.0087                 1.2972
 IR Inten    --    161.3211                 0.8259                24.0603

                     58                     59                     60
                      A                      A                      A
 Frequencies --   1163.7609              1201.0693              1221.4157
 Red. masses --      1.3157                11.4120                 2.5641
 Frc consts  --      1.0499                 9.6995                 2.2538
 IR Inten    --     78.0926               945.2042                56.0847

                     61                     62                     63
                      A                      A                      A
 Frequencies --   1282.2206              1322.5955              1346.9508
 Red. masses --      2.4745                 1.6598                 2.5048
 Frc consts  --      2.3970                 1.7107                 2.6775
 IR Inten    --     14.4013                56.9952               370.1315

                     64                     65                     66
                      A                      A                      A
 Frequencies --   1370.4268              1388.1534              1393.6706
 Red. masses --      3.1071                 5.4475                 1.6385
 Frc consts  --      3.4381                 6.1847                 1.8750
 IR Inten    --    606.6346                49.1919               240.7582

                     67                     68                     69
                      A                      A                      A
 Frequencies --   1415.1266              1438.0352              1444.9056
 Red. masses --      1.6086                 2.0353                 1.8349
 Frc consts  --      1.8979                 2.4799                 2.2570
 IR Inten    --     78.0688               155.8031               406.9590

                     70                     71                     72
                      A                      A                      A
 Frequencies --   1452.1199              1480.4151              1503.9020
 Red. masses --      1.0429                 1.1185                 1.6703
 Frc consts  --      1.2957                 1.4443                 2.2257
 IR Inten    --     17.6634                62.7501               181.0179

                     73                     74                     75
                      A                      A                      A
 Frequencies --   1525.6971              1549.0367              1601.3704
 Red. masses --      3.4070                 4.1810                 3.4980
 Frc consts  --      4.6726                 5.9109                 5.2851
 IR Inten    --    199.8058                53.1411               881.3930

                     76                     77                     78
                      A                      A                      A
 Frequencies --   1690.2077              1712.4978              1729.7409
 Red. masses --      7.5436                 8.1620                10.7345
 Frc consts  --     12.6972                14.1029                18.9231
 IR Inten    --     27.2518               422.8768               963.2674

                     79                     80                     81
                      A                      A                      A
 Frequencies --   1877.9855              2178.8098              2648.8865
 Red. masses --     12.3637                 1.1530                 1.1040
 Frc consts  --     25.6911                 3.2250                 4.5638
 IR Inten    --    525.2154              3416.2264              5434.9059

                     82                     83                     84
                      A                      A                      A
 Frequencies --   3061.3131              3150.1981              3191.1112
 Red. masses --      1.0344                 1.1077                 1.1049
 Frc consts  --      5.7116                 6.4768                 6.6291
 IR Inten    --     47.6880                16.6613                 0.0640

                     85                     86                     87
                      A                      A                      A
 Frequencies --   3200.4498              3210.3317              3215.5973
 Red. masses --      1.0502                 1.0888                 1.0925
 Frc consts  --      6.3380                 6.6115                 6.6555
 IR Inten    --      7.1429                 1.2099                 3.2777

                     88                     89                     90
                      A                      A                      A
 Frequencies --   3228.2977              3233.8302              3347.9930
 Red. masses --      1.0955                 1.0999                 1.1280
 Frc consts  --      6.7269                 6.7767                 7.4497
 IR Inten    --      5.5610                 6.5927                 4.0179

 - Thermochemistry -
 -------------------
 Temperature   298.150 Kelvin.  Pressure   1.00000 Atm.
 Atom     1 has atomic number  7 and mass  14.00307

 Molecular mass:   319.02361 amu.
 Principal axes and moments of inertia in atomic units:
                           1         2         3
     Eigenvalues --  3021.12498********************
           X            1.00000  -0.00092   0.00276
           Y            0.00109   0.99806  -0.06229
           Z           -0.00269   0.06229   0.99805
 This molecule is an asymmetric top.
 Rotational symmetry number  1.
 Warning -- assumption of classical behavior for rotation
           may cause significant error
 Rotational temperatures (Kelvin)      0.02867     0.00829     0.00783
 Rotational constants (GHZ):           0.59737     0.17267     0.16316
    2 imaginary frequencies ignored.
 Zero-point vibrational energy     588336.1 (Joules/Mol)
                                  140.61569 (Kcal/Mol)
 Warning -- explicit consideration of  30 degrees of freedom as
           vibrations may cause significant error
 Vibrational temperatures:     70.76    81.08    98.72   125.05   132.14
          (Kelvin)            167.69   179.85   198.44   210.58   222.72
                              245.16   260.02   313.53   357.86   406.41
                              448.79   475.59   495.89   568.71   581.60
                              610.57   700.15   715.97   774.27   786.82
                              787.82   797.20   833.63   838.86   852.19
                             1006.69  1015.57  1046.45  1051.99  1080.39
                             1113.31  1129.02  1153.31  1214.81  1267.00
                             1297.56  1332.20  1358.88  1388.27  1421.99
                             1455.25  1490.37  1505.35  1545.82  1561.38
                             1579.04  1615.55  1629.37  1640.53  1642.88
                             1674.39  1728.07  1757.34  1844.83  1902.92
                             1937.96  1971.74  1997.24  2005.18  2036.05
                             2069.01  2078.89  2089.27  2129.98  2163.78
                             2195.14  2228.72  2304.01  2431.83  2463.90
                             2488.71  2702.00  3134.82  3811.15  4404.54
                             4532.43  4591.29  4604.73  4618.95  4626.52
                             4644.79  4652.75  4817.01

 Zero-point correction=                           0.224085 (Hartree/Particle)
 Thermal correction to Energy=                    0.242229
 Thermal correction to Enthalpy=                  0.243173
 Thermal correction to Gibbs Free Energy=         0.177456
 Sum of electronic and zero-point Energies=          -1495.560343
 Sum of electronic and thermal Energies=             -1495.542200
 Sum of electronic and thermal Enthalpies=           -1495.541256
 Sum of electronic and thermal Free Energies=        -1495.606973

                     E (Thermal)             CV                S
                      KCal/Mol        Cal/Mol-Kelvin    Cal/Mol-Kelvin
 Total                  152.001             68.349            138.312
 Electronic               0.000              0.000              0.000
 Translational            0.889              2.981             43.176
 Rotational               0.889              2.981             34.212
 Vibrational            150.223             62.387             60.924
 Vibration     1          0.595              1.978              4.850
 Vibration     2          0.596              1.975              4.581
 Vibration     3          0.598              1.969              4.193
 Vibration     4          0.601              1.958              3.728
 Vibration     5          0.602              1.955              3.620
 Vibration     6          0.608              1.936              3.157
 Vibration     7          0.610              1.928              3.022
 Vibration     8          0.614              1.915              2.833
 Vibration     9          0.617              1.907              2.719
 Vibration    10          0.620              1.897              2.612
 Vibration    11          0.625              1.879              2.431
 Vibration    12          0.630              1.866              2.321
 Vibration    13          0.646              1.814              1.976
 Vibration    14          0.662              1.765              1.740
 Vibration    15          0.682              1.706              1.519
 Vibration    16          0.700              1.651              1.352
 Vibration    17          0.713              1.614              1.257
 Vibration    18          0.723              1.586              1.190
 Vibration    19          0.762              1.480              0.980
 Vibration    20          0.769              1.461              0.947
 Vibration    21          0.786              1.417              0.877
 Vibration    22          0.843              1.280              0.692
 Vibration    23          0.853              1.255              0.664
 Vibration    24          0.893              1.166              0.569
 Vibration    25          0.902              1.147              0.551
 Vibration    26          0.903              1.145              0.549
 Vibration    27          0.909              1.131              0.536
 Vibration    28          0.936              1.076              0.486
 Vibration    29          0.940              1.068              0.480
 Vibration    30          0.950              1.048              0.463

 Normal termination of Gaussian 09 at Wed Oct 12 08:43:53 2022.
