 Gaussian 09, Revision D.01,
 Gaussian 09:  ES64L-G09RevD.01 24-Apr-2013

 -------------------------------------------------------------
 # freq scrf=(cpcm,solvent=nitromethane) pop=nbo def2svp m062x
 -------------------------------------------------------------

 --------------------
 MeNO2+SO4-2 TS3 freq
 --------------------
 Symbolic Z-matrix:
 Charge = -1 Multiplicity = 1

                         Standard orientation:
 ---------------------------------------------------------------------
 Center     Atomic      Atomic             Coordinates (Angstroms)
 Number     Number       Type             X           Y           Z
 ---------------------------------------------------------------------
      1          7           0       -2.263352    0.034574    0.059503
      2          8           0       -3.290665    0.067558   -0.592430
      3          8           0       -1.727875    1.116587    0.431894
      4          6           0       -1.618112   -1.158045    0.342558
      5          1           0       -1.076587   -1.110095    1.289698
      6          1           0       -2.256756   -2.020928    0.155566
      7          1           0       -0.354525   -1.071722   -0.522950
      8          8           0        0.765242    1.356967    0.077554
      9          1           0       -0.234875    1.235035    0.293145
     10         16           0        1.510914   -0.028378   -0.017218
     11          8           0        0.632551   -0.848306   -1.003987
     12          8           0        1.490544   -0.660347    1.292901
     13          8           0        2.792735    0.233542   -0.632412
 ---------------------------------------------------------------------

 SCF Done:  E(RM062X) =  -944.001128151     A.U. after   14 cycles

 The electronic state is 1-A.
 Alpha  occ. eigenvalues --  -90.16109 -19.64821 -19.64236 -19.63545 -19.63272
 Alpha  occ. eigenvalues --  -19.61256 -19.61127 -14.97654 -10.54922  -8.48751
 Alpha  occ. eigenvalues --   -6.41278  -6.41211  -6.41141  -1.32096  -1.27772
 Alpha  occ. eigenvalues --   -1.13395  -1.11946  -1.11346  -1.10368  -0.89235
 Alpha  occ. eigenvalues --   -0.73328  -0.66796  -0.65403  -0.61174  -0.58591
 Alpha  occ. eigenvalues --   -0.58095  -0.57403  -0.56592  -0.50557  -0.49423
 Alpha  occ. eigenvalues --   -0.47173  -0.44341  -0.42171  -0.41997  -0.40181
 Alpha  occ. eigenvalues --   -0.37825  -0.36678  -0.36378  -0.36114  -0.34819
 Alpha  occ. eigenvalues --   -0.28441
 Alpha virt. eigenvalues --    0.00477   0.14103   0.17349   0.17752   0.18773
 Alpha virt. eigenvalues --    0.20847   0.21956   0.23229   0.25872   0.27946
 Alpha virt. eigenvalues --    0.35255   0.40484   0.42681   0.48309   0.54670

 Mulliken charges:
               1
     1  N    0.266179
     2  O   -0.353759
     3  O   -0.441718
     4  C   -0.245526
     5  H    0.076242
     6  H    0.067165
     7  H    0.260769
     8  O   -0.463078
     9  H    0.254789
    10  S    1.156973
    11  O   -0.478259
    12  O   -0.553965
    13  O   -0.545813
 Sum of Mulliken charges =  -1.00000

 Dipole moment (field-independent basis, Debye):
    X=             -1.6894    Y=             -1.8196    Z=              0.9173  Tot=              2.6470
 Quadrupole moment (field-independent basis, Debye-Ang):
   XX=            -92.8796   YY=            -64.5176   ZZ=            -66.0934
   XY=              4.1118   XZ=             -2.0499   YZ=              0.2229

  Exact polarizability:  95.011  -2.176  66.918   4.526  -0.998  52.686
 Approx polarizability:  90.819  -2.785  69.750   4.810   0.276  58.279

 Summary of Natural Population Analysis:

                                       Natural Population
                Natural  -----------------------------------------------
    Atom  No    Charge         Core      Valence    Rydberg      Total
 -----------------------------------------------------------------------
      N    1    0.51260      1.99930     4.43945    0.04864     6.48740
      O    2   -0.46533      1.99975     6.44911    0.01648     8.46533
      O    3   -0.59393      1.99975     6.57880    0.01537     8.59393
      C    4   -0.59103      1.99926     4.56267    0.02910     6.59103
      H    5    0.23616      0.00000     0.76033    0.00351     0.76384
      H    6    0.22529      0.00000     0.77224    0.00246     0.77471
      H    7    0.47446      0.00000     0.51892    0.00662     0.52554
      O    8   -0.97919      1.99974     6.97094    0.00851     8.97919
      H    9    0.53186      0.00000     0.45943    0.00871     0.46814
      S   10    2.61882      9.99912     3.14336    0.23870    13.38118
      O   11   -0.99526      1.99976     6.98746    0.00804     8.99526
      O   12   -0.99497      1.99977     6.98708    0.00811     8.99497
      O   13   -0.97949      1.99977     6.97102    0.00870     8.97949
 =======================================================================
   * Total *   -1.00000     25.99621    55.60083    0.40296    82.00000

 ******    1 imaginary frequencies (negative Signs) ******

                      1                      2                      3
                      A                      A                      A
 Frequencies --   -704.5467                47.9557                86.8049
 Red. masses --      1.8845                 8.8339                10.6906
 Frc consts  --      0.5511                 0.0120                 0.0475
 IR Inten    --   3410.3876                 3.6081                 1.8115

                      4                      5                      6
                      A                      A                      A
 Frequencies --     94.2983               147.6685               251.9868
 Red. masses --     12.0968                 7.7308                11.9321
 Frc consts  --      0.0634                 0.0993                 0.4464
 IR Inten    --      9.5609                 0.4096               221.7784

                      7                      8                      9
                      A                      A                      A
 Frequencies --    334.6226               415.3650               485.2298
 Red. masses --      6.1208                 9.8798                 6.5553
 Frc consts  --      0.4038                 1.0043                 0.9094
 IR Inten    --     11.9216                81.5068                96.7428

                     10                     11                     12
                      A                      A                      A
 Frequencies --    549.3103               556.8258               567.5103
 Red. masses --      5.1441                 3.1338                 5.1379
 Frc consts  --      0.9145                 0.5725                 0.9750
 IR Inten    --     77.3699                44.1310                12.3674

                     13                     14                     15
                      A                      A                      A
 Frequencies --    621.7053               661.5447               748.2033
 Red. masses --      3.2162                 1.4547                 3.4967
 Frc consts  --      0.7324                 0.3751                 1.1533
 IR Inten    --    261.0957                59.9462                76.8949

                     16                     17                     18
                      A                      A                      A
 Frequencies --    797.6474               884.0956               916.2036
 Red. masses --      6.2979                 1.0857                13.4560
 Frc consts  --      2.3608                 0.5000                 6.6550
 IR Inten    --    272.3747               292.0216               108.8025

                     19                     20                     21
                      A                      A                      A
 Frequencies --    954.1865              1063.2237              1125.0026
 Red. masses --      5.7510                 4.2863                 2.1714
 Frc consts  --      3.0850                 2.8548                 1.6192
 IR Inten    --    310.3512               106.7262              1047.2238

                     22                     23                     24
                      A                      A                      A
 Frequencies --   1136.4093              1197.0380              1266.9466
 Red. masses --      1.4771                 1.9816                 2.6450
 Frc consts  --      1.1239                 1.6729                 2.5014
 IR Inten    --    402.6899                90.4245               262.0839

                     25                     26                     27
                      A                      A                      A
 Frequencies --   1352.9238              1419.2800              1436.6119
 Red. masses --      6.9005                 1.0898                 1.1501
 Frc consts  --      7.4417                 1.2934                 1.3985
 IR Inten    --    379.7530               180.8605                49.1171

                     28                     29                     30
                      A                      A                      A
 Frequencies --   1486.8363              1571.5994              1674.2142
 Red. masses --      1.5572                 2.1366                 4.1533
 Frc consts  --      2.0283                 3.1092                 6.8590
 IR Inten    --    758.7107              1332.8578               335.5614

                     31                     32                     33
                      A                      A                      A
 Frequencies --   2643.7201              3154.7054              3282.5466
 Red. masses --      1.0998                 1.0522                 1.1203
 Frc consts  --      4.5288                 6.1699                 7.1122
 IR Inten    --   3341.3310                 3.4206                 1.5454

 - Thermochemistry -
 -------------------
 Temperature   298.150 Kelvin.  Pressure   1.00000 Atm.
 Atom     1 has atomic number  7 and mass  14.00307

 Molecular mass:   157.97593 amu.
 Principal axes and moments of inertia in atomic units:
                           1         2         3
     Eigenvalues --   551.207832289.256832401.63165
           X            0.99992   0.01195  -0.00346
           Y           -0.01204   0.99956  -0.02721
           Z            0.00314   0.02725   0.99962
 This molecule is an asymmetric top.
 Rotational symmetry number  1.
 Warning -- assumption of classical behavior for rotation
           may cause significant error
 Rotational temperatures (Kelvin)      0.15713     0.03783     0.03606
 Rotational constants (GHZ):           3.27416     0.78835     0.75146
    1 imaginary frequencies ignored.
 Zero-point vibrational energy     196978.4 (Joules/Mol)
                                   47.07898 (Kcal/Mol)
 Warning -- explicit consideration of  11 degrees of freedom as
           vibrations may cause significant error
 Vibrational temperatures:     69.00   124.89   135.67   212.46   362.55
          (Kelvin)            481.45   597.62   698.14   790.33   801.15
                              816.52   894.49   951.81  1076.50  1147.64
                             1272.01  1318.21  1372.86  1529.74  1618.63
                             1635.04  1722.27  1822.85  1946.55  2042.02
                             2066.96  2139.22  2261.18  2408.82  3803.72
                             4538.91  4722.85

 Zero-point correction=                           0.075025 (Hartree/Particle)
 Thermal correction to Energy=                    0.083536
 Thermal correction to Enthalpy=                  0.084480
 Thermal correction to Gibbs Free Energy=         0.040017
 Sum of electronic and zero-point Energies=           -943.926103
 Sum of electronic and thermal Energies=              -943.917592
 Sum of electronic and thermal Enthalpies=            -943.916648
 Sum of electronic and thermal Free Energies=         -943.961111

                     E (Thermal)             CV                S
                      KCal/Mol        Cal/Mol-Kelvin    Cal/Mol-Kelvin
 Total                   52.420             29.614             93.582
 Electronic               0.000              0.000              0.000
 Translational            0.889              2.981             41.081
 Rotational               0.889              2.981             29.495
 Vibrational             50.642             23.653             23.005
 Vibration     1          0.595              1.978              4.900
 Vibration     2          0.601              1.958              3.731
 Vibration     3          0.603              1.953              3.569
 Vibration     4          0.617              1.905              2.702
 Vibration     5          0.664              1.759              1.717
 Vibration     6          0.716              1.606              1.238
 Vibration     7          0.779              1.437              0.908
 Vibration     8          0.841              1.283              0.696
 Vibration     9          0.905              1.141              0.546
 Vibration    10          0.912              1.125              0.530
 Vibration    11          0.923              1.102              0.509

 Normal termination of Gaussian 09 at Sat Nov  7 15:08:03 2020.
