 Gaussian 09, Revision D.01,
 Gaussian 09:  ES64L-G09RevD.01 24-Apr-2013

 ---------------------------------------------------------
 # opt freq scrf=(cpcm,solvent=nitromethane) def2svp m062x
 ---------------------------------------------------------

 -----------------------------------
 MeNO2 + isatin TS4 product opt freq
 -----------------------------------
 Symbolic Z-matrix:
 Charge = -1 Multiplicity = 1

 SCF Done:  E(RM062X) =  -1495.82680677     A.U. after   14 cycles
 SCF Done:  E(RM062X) =  -1495.81572078     A.U. after   16 cycles
 SCF Done:  E(RM062X) =  -1495.82682685     A.U. after    9 cycles
 SCF Done:  E(RM062X) =  -1495.82520133     A.U. after   15 cycles
 SCF Done:  E(RM062X) =  -1495.82688191     A.U. after    9 cycles
 SCF Done:  E(RM062X) =  -1495.82656695     A.U. after   12 cycles
 SCF Done:  E(RM062X) =  -1495.82691106     A.U. after    7 cycles
 SCF Done:  E(RM062X) =  -1495.82696394     A.U. after   13 cycles
 SCF Done:  E(RM062X) =  -1495.82664567     A.U. after   13 cycles
 SCF Done:  E(RM062X) =  -1495.82687092     A.U. after   12 cycles
 SCF Done:  E(RM062X) =  -1495.82699333     A.U. after    7 cycles
 SCF Done:  E(RM062X) =  -1495.82696690     A.U. after   12 cycles
 SCF Done:  E(RM062X) =  -1495.82704618     A.U. after   11 cycles
 SCF Done:  E(RM062X) =  -1495.82704732     A.U. after   10 cycles
 SCF Done:  E(RM062X) =  -1495.82704988     A.U. after   10 cycles
 SCF Done:  E(RM062X) =  -1495.82705091     A.U. after   10 cycles
 SCF Done:  E(RM062X) =  -1495.82705104     A.U. after    9 cycles
 SCF Done:  E(RM062X) =  -1495.82705113     A.U. after    8 cycles
 SCF Done:  E(RM062X) =  -1495.82705124     A.U. after    8 cycles
 Optimization completed.
    -- Stationary point found.
 Normal termination of Gaussian 09 at Wed Nov 11 08:57:38 2020.

 -------------------------------------------------------------------
 #N Geom=AllCheck Guess=TCheck SCRF=Check GenChk RM062X/def2SVP Freq
 -------------------------------------------------------------------

 Structure from the checkpoint file:  "MeNO2_isatin_TS4_product_opt.chk"
 -----------------------------------
 MeNO2 + isatin TS4 product opt freq
 -----------------------------------
 Charge = -1 Multiplicity = 1

                         Standard orientation:
 ---------------------------------------------------------------------
 Center     Atomic      Atomic             Coordinates (Angstroms)
 Number     Number       Type             X           Y           Z
 ---------------------------------------------------------------------
      1          7           0        0.934842   -0.185944    1.848263
      2          8           0        1.183029    0.928599    2.218780
      3          8           0        1.766390   -1.053032    1.658664
      4          6           0       -0.482014   -0.555654    1.567335
      5          1           0       -1.105779   -0.010850    2.284232
      6          1           0       -0.539998   -1.638206    1.715916
      7          1           0        3.449303   -0.329070    1.331719
      8          6           0       -4.965614   -1.166553   -0.505256
      9          6           0       -4.496578    0.152094   -0.435447
     10          6           0       -3.132581    0.334620   -0.245841
     11          6           0       -2.257474   -0.751136   -0.120640
     12          6           0       -2.727998   -2.050261   -0.192689
     13          6           0       -4.101223   -2.255388   -0.391255
     14          1           0       -6.032149   -1.340969   -0.655890
     15          1           0       -5.176895    0.998295   -0.532509
     16          1           0       -2.042522   -2.895727   -0.104324
     17          1           0       -4.494978   -3.269934   -0.457344
     18          6           0       -0.856683   -0.224777    0.100009
     19          6           0       -1.071131    1.310664   -0.067625
     20          7           0       -2.421704    1.537121   -0.178657
     21          8           0       -0.207909    2.151671   -0.111354
     22          8           0        0.051821   -0.740307   -0.801228
     23          6           0       -3.007358    2.843824   -0.361435
     24          1           0       -3.490098    2.920186   -1.346934
     25          1           0       -3.753710    3.044296    0.420036
     26          1           0       -2.200966    3.582497   -0.294607
     27          1           0        0.916003   -0.238352   -0.769081
     28          8           0        2.322258    0.561060   -0.772358
     29         16           0        3.628600   -0.151025   -0.772186
     30          8           0        3.486243   -1.586636   -1.020956
     31          8           0        4.165781    0.002279    0.754655
     32          8           0        4.659156    0.525291   -1.552003
 ---------------------------------------------------------------------

 SCF Done:  E(RM062X) =  -1495.82705124     A.U. after    1 cycles

 The electronic state is 1-A.
 Alpha  occ. eigenvalues --  -90.12787 -19.68529 -19.68293 -19.63443 -19.62291
 Alpha  occ. eigenvalues --  -19.62230 -19.59036 -19.58238 -19.58155 -15.01594
 Alpha  occ. eigenvalues --  -14.80981 -10.66845 -10.64139 -10.62076 -10.60912
 Alpha  occ. eigenvalues --  -10.59221 -10.57187 -10.56888 -10.56836 -10.56735
 Alpha  occ. eigenvalues --  -10.56074  -8.45403  -6.37962  -6.37823  -6.37802
 Alpha  occ. eigenvalues --   -1.37833  -1.24372  -1.18953  -1.17679  -1.13315
 Alpha  occ. eigenvalues --   -1.10182  -1.07900  -1.07019  -1.06635  -0.95827
 Alpha  occ. eigenvalues --   -0.93296  -0.88036  -0.84590  -0.80684  -0.77899
 Alpha  occ. eigenvalues --   -0.71028  -0.69810  -0.68737  -0.67955  -0.66145
 Alpha  occ. eigenvalues --   -0.65022  -0.63723  -0.62468  -0.61837  -0.58586
 Alpha  occ. eigenvalues --   -0.58226  -0.56040  -0.54937  -0.54386  -0.53732
 Alpha  occ. eigenvalues --   -0.53498  -0.52338  -0.51579  -0.51269  -0.50239
 Alpha  occ. eigenvalues --   -0.49968  -0.48450  -0.46522  -0.46216  -0.45599
 Alpha  occ. eigenvalues --   -0.43967  -0.43128  -0.42659  -0.41652  -0.40649
 Alpha  occ. eigenvalues --   -0.40199  -0.39760  -0.39387  -0.38960  -0.38787
 Alpha  occ. eigenvalues --   -0.37324  -0.36526  -0.34917  -0.33615  -0.32951
 Alpha  occ. eigenvalues --   -0.31990  -0.31509  -0.27494
 Alpha virt. eigenvalues --   -0.03201   0.00676   0.01798   0.06480   0.10437
 Alpha virt. eigenvalues --    0.11711   0.12197   0.14577   0.15584   0.16318
 Alpha virt. eigenvalues --    0.16967   0.17313   0.18169   0.19016   0.19187

 Mulliken charges:
               1
     1  N    0.204428
     2  O   -0.233573
     3  O   -0.297084
     4  C    0.255599
     5  H    0.092135
     6  H    0.082896
     7  H    0.202806
     8  C   -0.019647
     9  C   -0.098247
    10  C    0.202679
    11  C   -0.020791
    12  C   -0.057888
    13  C   -0.033174
    14  H    0.045083
    15  H    0.025358
    16  H    0.037411
    17  H    0.038953
    18  C   -0.076592
    19  C    0.247754
    20  N   -0.342024
    21  O   -0.257353
    22  O   -0.360909
    23  C    0.057304
    24  H    0.077226
    25  H    0.078352
    26  H    0.078575
    27  H    0.217868
    28  O   -0.636880
    29  S    1.163988
    30  O   -0.612133
    31  O   -0.453571
    32  O   -0.608549
 Sum of Mulliken charges =  -1.00000

 Dipole moment (field-independent basis, Debye):
    X=            -23.7761    Y=             -0.4094    Z=              6.4193  Tot=             24.6309
 Quadrupole moment (field-independent basis, Debye-Ang):
   XX=           -183.0329   YY=           -132.6944   ZZ=           -135.4705
   XY=             -4.7396   XZ=             16.8213   YZ=             -5.8116

  Exact polarizability: 249.417  13.014 220.799  11.862   4.263 126.739
 Approx polarizability: 226.862   9.483 226.751   6.772   7.247 129.104

                      1                      2                      3
                      A                      A                      A
 Frequencies --     30.8366                42.6636                49.4192
 Red. masses --      5.8486                10.0505                 8.2682
 Frc consts  --      0.0033                 0.0108                 0.0119
 IR Inten    --      0.6804                 0.2942                 1.3389

                      4                      5                      6
                      A                      A                      A
 Frequencies --     60.9162                75.0618                84.8174
 Red. masses --     12.6434                11.9656                 6.5728
 Frc consts  --      0.0276                 0.0397                 0.0279
 IR Inten    --      0.2632                19.6055                 2.8090

                      7                      8                      9
                      A                      A                      A
 Frequencies --    107.2717               122.4850               124.7765
 Red. masses --      7.3848                 4.3733                 2.0104
 Frc consts  --      0.0501                 0.0387                 0.0184
 IR Inten    --      1.5526                 4.1561                 1.3712

                     10                     11                     12
                      A                      A                      A
 Frequencies --    137.2923               140.6839               162.8477
 Red. masses --      4.9173                 1.9870                 6.9509
 Frc consts  --      0.0546                 0.0232                 0.1086
 IR Inten    --     15.0325                 5.7015                 0.4098

                     13                     14                     15
                      A                      A                      A
 Frequencies --    171.1953               203.9610               246.3604
 Red. masses --      6.9812                 7.0419                 3.8948
 Frc consts  --      0.1205                 0.1726                 0.1393
 IR Inten    --      3.8085                 3.1492                 4.0508

                     16                     17                     18
                      A                      A                      A
 Frequencies --    277.6733               292.0767               317.2904
 Red. masses --      5.2674                 5.7531                 6.0472
 Frc consts  --      0.2393                 0.2892                 0.3587
 IR Inten    --      3.9169                 7.8738                11.9849

                     19                     20                     21
                      A                      A                      A
 Frequencies --    347.2779               381.2066               396.3660
 Red. masses --      4.8331                 5.4685                 5.5204
 Frc consts  --      0.3434                 0.4682                 0.5110
 IR Inten    --     11.2771                 6.0774                20.7817

                     22                     23                     24
                      A                      A                      A
 Frequencies --    427.5762               487.8356               496.2932
 Red. masses --      7.9950                 3.9131                 7.2852
 Frc consts  --      0.8612                 0.5487                 1.0572
 IR Inten    --     31.6523                21.2225                 7.2443

                     25                     26                     27
                      A                      A                      A
 Frequencies --    505.9563               547.5349               553.9862
 Red. masses --      2.4583                 5.1910                 4.3109
 Frc consts  --      0.3708                 0.9169                 0.7795
 IR Inten    --      7.6984                20.5237               116.2952

                     28                     29                     30
                      A                      A                      A
 Frequencies --    561.7202               573.6238               576.9708
 Red. masses --      3.0344                 7.9917                 4.2084
 Frc consts  --      0.5641                 1.5493                 0.8254
 IR Inten    --      7.5061                64.8349                36.9131

                     31                     32                     33
                      A                      A                      A
 Frequencies --    586.6462               600.7034               670.9507
 Red. masses --      4.9078                 2.9487                 5.4556
 Frc consts  --      0.9951                 0.6269                 1.4470
 IR Inten    --     25.4937               155.4671                14.8914

                     34                     35                     36
                      A                      A                      A
 Frequencies --    696.5103               724.3890               756.1156
 Red. masses --      5.6566                 5.5585                 4.1011
 Frc consts  --      1.6168                 1.7185                 1.3814
 IR Inten    --     36.7894                 2.7492                18.5203

                     37                     38                     39
                      A                      A                      A
 Frequencies --    781.7916               791.7289               819.6240
 Red. masses --      1.4105                 3.9695                 5.9080
 Frc consts  --      0.5079                 1.4660                 2.3384
 IR Inten    --     94.2238                 2.5539                20.2148

                     40                     41                     42
                      A                      A                      A
 Frequencies --    836.7278               861.8049               897.6792
 Red. masses --     15.2060                 1.0994                 2.3962
 Frc consts  --      6.2724                 0.4811                 1.1377
 IR Inten    --    346.3924               126.2451                 5.9292

                     43                     44                     45
                      A                      A                      A
 Frequencies --    902.2678               933.7282               975.0423
 Red. masses --      1.8923                 2.6230                 2.8427
 Frc consts  --      0.9076                 1.3474                 1.5923
 IR Inten    --      3.3576                 3.3225                 2.3260

                     46                     47                     48
                      A                      A                      A
 Frequencies --    989.0153              1010.7068              1033.7247
 Red. masses --      1.8622                 5.5514                 1.3382
 Frc consts  --      1.0732                 3.3412                 0.8425
 IR Inten    --      9.4117                43.4197                 0.2366

                     49                     50                     51
                      A                      A                      A
 Frequencies --   1045.1954              1054.2981              1069.5284
 Red. masses --      2.2906                 2.2549                15.0892
 Frc consts  --      1.4743                 1.4768                10.1695
 IR Inten    --      4.4314               106.1818               214.8963

                     52                     53                     54
                      A                      A                      A
 Frequencies --   1103.8906              1132.8655              1143.2986
 Red. masses --      2.0166                 2.5286                 1.3925
 Frc consts  --      1.4479                 1.9120                 1.0724
 IR Inten    --     67.2461                18.3053                22.2823

                     55                     56                     57
                      A                      A                      A
 Frequencies --   1146.9001              1159.7433              1189.8018
 Red. masses --      1.6870                 1.2005                 2.8942
 Frc consts  --      1.3074                 0.9513                 2.4139
 IR Inten    --     80.4884                41.1904               112.2939

                     58                     59                     60
                      A                      A                      A
 Frequencies --   1207.7946              1232.1567              1251.3114
 Red. masses --      2.2865                 1.5697                 2.9019
 Frc consts  --      1.9652                 1.4041                 2.6771
 IR Inten    --    230.3634                12.4360               678.6766

                     61                     62                     63
                      A                      A                      A
 Frequencies --   1276.2634              1314.2949              1332.8909
 Red. masses --      1.8002                 2.0619                 1.7252
 Frc consts  --      1.7277                 2.0985                 1.8058
 IR Inten    --     10.4501               238.8400               408.2058

                     64                     65                     66
                      A                      A                      A
 Frequencies --   1338.6436              1352.0171              1403.6551
 Red. masses --      3.3421                 3.5274                 3.6729
 Frc consts  --      3.5286                 3.7990                 4.2637
 IR Inten    --    227.9481                78.9053                70.4776

                     67                     68                     69
                      A                      A                      A
 Frequencies --   1420.0158              1424.9934              1446.5183
 Red. masses --      1.4865                 1.0990                 2.7082
 Frc consts  --      1.7661                 1.3149                 3.3387
 IR Inten    --     49.2377                13.7215                81.5559

                     70                     71                     72
                      A                      A                      A
 Frequencies --   1456.0994              1461.9406              1485.2856
 Red. masses --      1.0392                 1.3683                 1.1743
 Frc consts  --      1.2982                 1.7230                 1.5263
 IR Inten    --     18.8871                53.2466                67.7377

                     73                     74                     75
                      A                      A                      A
 Frequencies --   1522.7856              1542.5768              1559.3139
 Red. masses --      3.0257                12.9670                 4.5576
 Frc consts  --      4.1338                18.1796                 6.5290
 IR Inten    --    165.3953               189.7275               145.7090

                     76                     77                     78
                      A                      A                      A
 Frequencies --   1700.5609              1712.3676              1766.0111
 Red. masses --      7.7494                 7.9248                11.2717
 Frc consts  --     13.2040                13.6909                20.7123
 IR Inten    --     28.9174               189.2334               539.7022

                     79                     80                     81
                      A                      A                      A
 Frequencies --   1878.2413              3061.8292              3132.5601
 Red. masses --     12.4071                 1.0353                 1.0781
 Frc consts  --     25.7884                 5.7184                 6.2331
 IR Inten    --    744.2070                51.4805              2532.4083

                     82                     83                     84
                      A                      A                      A
 Frequencies --   3133.1062              3150.0360              3198.9698
 Red. masses --      1.0589                 1.1073                 1.1045
 Frc consts  --      6.1244                 6.4737                 6.6594
 IR Inten    --    125.0380                14.8357                 0.0625

                     85                     86                     87
                      A                      A                      A
 Frequencies --   3205.9092              3214.0507              3224.6879
 Red. masses --      1.0904                 1.0910                 1.1150
 Frc consts  --      6.6030                 6.6400                 6.8314
 IR Inten    --      1.2922                 5.5421                 1.2475

                     88                     89                     90
                      A                      A                      A
 Frequencies --   3226.3917              3232.3950              3641.7374
 Red. masses --      1.0954                 1.0999                 1.0665
 Frc consts  --      6.7180                 6.7713                 8.3337
 IR Inten    --      6.5849                 3.0559               827.4028

 - Thermochemistry -
 -------------------
 Temperature   298.150 Kelvin.  Pressure   1.00000 Atm.
 Atom     1 has atomic number  7 and mass  14.00307

 Molecular mass:   319.02361 amu.
 Principal axes and moments of inertia in atomic units:
                           1         2         3
     Eigenvalues --  2999.78197********************
           X            0.99998  -0.00272   0.00534
           Y            0.00285   0.99968  -0.02511
           Z           -0.00527   0.02512   0.99967
 This molecule is an asymmetric top.
 Rotational symmetry number  1.
 Warning -- assumption of classical behavior for rotation
           may cause significant error
 Rotational temperatures (Kelvin)      0.02887     0.00783     0.00739
 Rotational constants (GHZ):           0.60162     0.16323     0.15404
 Zero-point vibrational energy     603671.9 (Joules/Mol)
                                  144.28105 (Kcal/Mol)
 Warning -- explicit consideration of  32 degrees of freedom as
           vibrations may cause significant error
 Vibrational temperatures:     44.37    61.38    71.10    87.64   108.00
          (Kelvin)            122.03   154.34   176.23   179.53   197.53
                              202.41   234.30   246.31   293.45   354.46
                              399.51   420.23   456.51   499.65   548.47
                              570.28   615.19   701.89   714.05   727.96
                              787.78   797.06   808.19   825.32   830.13
                              844.05   864.28   965.35  1002.12  1042.23
                             1087.88  1124.82  1139.12  1179.25  1203.86
                             1239.94  1291.56  1298.16  1343.42  1402.87
                             1422.97  1454.18  1487.30  1503.80  1516.90
                             1538.81  1588.25  1629.94  1644.95  1650.13
                             1668.61  1711.86  1737.74  1772.80  1800.36
                             1836.26  1890.97  1917.73  1926.01  1945.25
                             2019.54  2043.08  2050.25  2081.21  2095.00
                             2103.40  2136.99  2190.95  2219.42  2243.50
                             2446.72  2463.71  2540.89  2702.37  4405.28
                             4507.05  4507.84  4532.19  4602.60  4612.58
                             4624.30  4639.60  4642.05  4650.69  5239.64

 Zero-point correction=                           0.229926 (Hartree/Particle)
 Thermal correction to Energy=                    0.249343
 Thermal correction to Enthalpy=                  0.250287
 Thermal correction to Gibbs Free Energy=         0.180424
 Sum of electronic and zero-point Energies=          -1495.597125
 Sum of electronic and thermal Energies=             -1495.577708
 Sum of electronic and thermal Enthalpies=           -1495.576764
 Sum of electronic and thermal Free Energies=        -1495.646628

                     E (Thermal)             CV                S
                      KCal/Mol        Cal/Mol-Kelvin    Cal/Mol-Kelvin
 Total                  156.465             71.170            147.040
 Electronic               0.000              0.000              0.000
 Translational            0.889              2.981             43.176
 Rotational               0.889              2.981             34.318
 Vibrational            154.688             65.208             69.546
 Vibration     1          0.594              1.984              5.775
 Vibration     2          0.595              1.980              5.131
 Vibration     3          0.595              1.978              4.841
 Vibration     4          0.597              1.973              4.427
 Vibration     5          0.599              1.966              4.016
 Vibration     6          0.601              1.960              3.776
 Vibration     7          0.606              1.943              3.318
 Vibration     8          0.610              1.930              3.061
 Vibration     9          0.610              1.928              3.025
 Vibration    10          0.614              1.916              2.841
 Vibration    11          0.615              1.913              2.795
 Vibration    12          0.623              1.888              2.516
 Vibration    13          0.626              1.878              2.422
 Vibration    14          0.640              1.834              2.097
 Vibration    15          0.661              1.769              1.756
 Vibration    16          0.679              1.715              1.548
 Vibration    17          0.687              1.688              1.462
 Vibration    18          0.704              1.641              1.324
 Vibration    19          0.725              1.581              1.179
 Vibration    20          0.751              1.510              1.034
 Vibration    21          0.763              1.478              0.976
 Vibration    22          0.789              1.410              0.867
 Vibration    23          0.844              1.277              0.689
 Vibration    24          0.852              1.258              0.667
 Vibration    25          0.861              1.237              0.643
 Vibration    26          0.903              1.145              0.549
 Vibration    27          0.909              1.131              0.536
 Vibration    28          0.917              1.114              0.520
 Vibration    29          0.930              1.088              0.497
 Vibration    30          0.933              1.081              0.491
 Vibration    31          0.944              1.060              0.473
 Vibration    32          0.959              1.030              0.448

 Normal termination of Gaussian 09 at Wed Nov 11 09:28:11 2020.
