 Gaussian 09, Revision D.01,
 Gaussian 09:  ES64L-G09RevD.01 24-Apr-2013

 ----------------------------------------------------------------------
 # opt freq int=(grid=ultrafine) scrf=(cpcm,solvent=nitromethane) def2s
 vp m062x
 ----------------------------------------------------------------------

 ---------------------------
 MeNO2+SO4-2 TS3 product opt
 ---------------------------
 Symbolic Z-matrix:
 Charge = -1 Multiplicity = 1

 SCF Done:  E(RM062X) =  -944.005734575     A.U. after   13 cycles
 SCF Done:  E(RM062X) =  -944.008920260     A.U. after   14 cycles
 SCF Done:  E(RM062X) =  -944.014033624     A.U. after   14 cycles
 SCF Done:  E(RM062X) =  -944.006658834     A.U. after   15 cycles
 SCF Done:  E(RM062X) =  -944.014367552     A.U. after   12 cycles
 SCF Done:  E(RM062X) =  -944.014143234     A.U. after   14 cycles
 SCF Done:  E(RM062X) =  -944.015355965     A.U. after   10 cycles
 SCF Done:  E(RM062X) =  -944.015536108     A.U. after   12 cycles
 SCF Done:  E(RM062X) =  -944.015500240     A.U. after   13 cycles
 SCF Done:  E(RM062X) =  -944.015652947     A.U. after   10 cycles
 SCF Done:  E(RM062X) =  -944.015734250     A.U. after   11 cycles
 SCF Done:  E(RM062X) =  -944.015761854     A.U. after   11 cycles
 SCF Done:  E(RM062X) =  -944.015769010     A.U. after   10 cycles
 SCF Done:  E(RM062X) =  -944.015771572     A.U. after   10 cycles
 SCF Done:  E(RM062X) =  -944.015772660     A.U. after    9 cycles
 SCF Done:  E(RM062X) =  -944.015773132     A.U. after    8 cycles
 SCF Done:  E(RM062X) =  -944.015773357     A.U. after    8 cycles
 Optimization completed.
    -- Stationary point found.
 Normal termination of Gaussian 09 at Sun Nov  8 08:55:57 2020.

 -------------------------------------------------------------------
 #N Geom=AllCheck Guess=TCheck SCRF=Check GenChk RM062X/def2SVP Freq
 -------------------------------------------------------------------

 Structure from the checkpoint file:  "MeNO2_Na2SO4_TS3_product_opt_2.chk"
 ---------------------------
 MeNO2+SO4-2 TS3 product opt
 ---------------------------
 Charge = -1 Multiplicity = 1

                         Standard orientation:
 ---------------------------------------------------------------------
 Center     Atomic      Atomic             Coordinates (Angstroms)
 Number     Number       Type             X           Y           Z
 ---------------------------------------------------------------------
      1          7           0       -2.418832   -0.045308    0.046317
      2          8           0       -3.515504   -0.073707   -0.507612
      3          8           0       -1.928939    1.201244    0.260236
      4          6           0       -1.716403   -1.070118    0.450973
      5          1           0       -0.808130   -0.901392    1.025216
      6          1           0       -2.143820   -2.048863    0.252951
      7          1           0        0.253053   -1.198384   -1.085377
      8          8           0        0.597126    1.168753    0.058589
      9          1           0       -0.913362    1.149033    0.236495
     10         16           0        1.584015    0.053518    0.041848
     11          8           0        1.149729   -0.854572   -1.240301
     12          8           0        1.456822   -0.815295    1.213998
     13          8           0        2.928049    0.483724   -0.301023
 ---------------------------------------------------------------------

 SCF Done:  E(RM062X) =  -944.015773357     A.U. after    1 cycles

 The electronic state is 1-A.
 Alpha  occ. eigenvalues --  -90.14525 -19.66172 -19.65424 -19.61597 -19.60806
 Alpha  occ. eigenvalues --  -19.59867 -19.59771 -14.96307 -10.58124  -8.47130
 Alpha  occ. eigenvalues --   -6.39693  -6.39553  -6.39529  -1.30049  -1.26060
 Alpha  occ. eigenvalues --   -1.13192  -1.11921  -1.08805  -1.08369  -0.92994
 Alpha  occ. eigenvalues --   -0.73170  -0.69819  -0.62933  -0.60415  -0.59339
 Alpha  occ. eigenvalues --   -0.58149  -0.55628  -0.55225  -0.50696  -0.49876
 Alpha  occ. eigenvalues --   -0.46217  -0.44012  -0.41411  -0.40883  -0.40499
 Alpha  occ. eigenvalues --   -0.39690  -0.36507  -0.35599  -0.35234  -0.33203
 Alpha  occ. eigenvalues --   -0.28635
 Alpha virt. eigenvalues --    0.02005   0.12544   0.15590   0.17447   0.18553
 Alpha virt. eigenvalues --    0.19752   0.22563   0.24452   0.25277   0.26401
 Alpha virt. eigenvalues --    0.34222   0.36994   0.42784   0.49772   0.56471

 Mulliken charges:
               1
     1  N    0.227812
     2  O   -0.417891
     3  O   -0.273347
     4  C   -0.113688
     5  H    0.084210
     6  H    0.087533
     7  H    0.216378
     8  O   -0.631033
     9  H    0.238246
    10  S    1.167935
    11  O   -0.428022
    12  O   -0.580338
    13  O   -0.577794
 Sum of Mulliken charges =  -1.00000

 Dipole moment (field-independent basis, Debye):
    X=             -2.3357    Y=             -3.0648    Z=              0.1270  Tot=              3.8555
 Quadrupole moment (field-independent basis, Debye-Ang):
   XX=           -102.5820   YY=            -62.8472   ZZ=            -64.8271
   XY=              4.0131   XZ=             -2.6568   YZ=              2.1647

  Exact polarizability:  86.347  -4.989  65.988   7.715  -4.818  48.949
 Approx polarizability:  85.926  -7.901  68.877   9.035  -6.680  52.401

 ******    1 imaginary frequencies (negative Signs) ******

                      1                      2                      3
                      A                      A                      A
 Frequencies --    -26.4945                44.9670                97.7246
 Red. masses --      8.9510                 9.2678                 8.7978
 Frc consts  --      0.0037                 0.0110                 0.0495
 IR Inten    --      3.4409                 6.2718                 3.3552

                      4                      5                      6
                      A                      A                      A
 Frequencies --    100.5431               159.7718               212.8447
 Red. masses --      7.8724                 4.9395                 3.7971
 Frc consts  --      0.0469                 0.0743                 0.1014
 IR Inten    --      4.4478                20.4456               101.4436

                      7                      8                      9
                      A                      A                      A
 Frequencies --    257.5960               401.1506               431.1578
 Red. masses --      1.4838                 8.0432                 6.0096
 Frc consts  --      0.0580                 0.7626                 0.6582
 IR Inten    --     56.5920                 8.9891                38.8264

                     10                     11                     12
                      A                      A                      A
 Frequencies --    549.4575               558.7107               561.4204
 Red. masses --      7.8738                 3.8715                 8.0547
 Frc consts  --      1.4006                 0.7120                 1.4958
 IR Inten    --     96.6111                32.3896                74.4143

                     13                     14                     15
                      A                      A                      A
 Frequencies --    581.6140               665.5035               684.2332
 Red. masses --      8.6949                 5.9823                 1.3914
 Frc consts  --      1.7330                 1.5611                 0.3838
 IR Inten    --     47.9191                50.3113                 8.4502

                     16                     17                     18
                      A                      A                      A
 Frequencies --    763.0211               792.8661               819.5964
 Red. masses --      3.5508                 1.2094                 9.0594
 Frc consts  --      1.2180                 0.4479                 3.5855
 IR Inten    --     33.0801               157.5386               393.6356

                     19                     20                     21
                      A                      A                      A
 Frequencies --    841.5423               958.2638              1062.0891
 Red. masses --      1.1234                 3.8035                13.3358
 Frc consts  --      0.4687                 2.0578                 8.8632
 IR Inten    --     76.8132                99.2177               199.6141

                     22                     23                     24
                      A                      A                      A
 Frequencies --   1121.4250              1143.3569              1211.0178
 Red. masses --      1.8959                 1.2860                13.1181
 Frc consts  --      1.4048                 0.9905                11.3350
 IR Inten    --     40.3012               131.5067               710.1220

                     25                     26                     27
                      A                      A                      A
 Frequencies --   1334.1648              1359.0348              1456.1182
 Red. masses --      9.6821                 2.1314                 1.5908
 Frc consts  --     10.1540                 2.3194                 1.9873
 IR Inten    --    589.9722               212.1703               220.2320

                     28                     29                     30
                      A                      A                      A
 Frequencies --   1552.2962              1728.5575              2837.7869
 Red. masses --      1.4657                 3.8654                 1.0884
 Frc consts  --      2.0808                 6.8048                 5.1644
 IR Inten    --    100.8720               628.5612              2450.3088

                     31                     32                     33
                      A                      A                      A
 Frequencies --   3206.9113              3359.4225              3766.9596
 Red. masses --      1.0521                 1.1299                 1.0663
 Frc consts  --      6.3752                 7.5132                 8.9146
 IR Inten    --     89.8479                32.9843               319.3545

 - Thermochemistry -
 -------------------
 Temperature   298.150 Kelvin.  Pressure   1.00000 Atm.
 Atom     1 has atomic number  7 and mass  14.00307

 Molecular mass:   157.97593 amu.
 Principal axes and moments of inertia in atomic units:
                           1         2         3
     Eigenvalues --   544.426672565.955202683.46442
           X            0.99997   0.00672  -0.00307
           Y           -0.00671   0.99997   0.00338
           Z            0.00309  -0.00336   0.99999
 This molecule is an asymmetric top.
 Rotational symmetry number  1.
 Warning -- assumption of classical behavior for rotation
           may cause significant error
 Rotational temperatures (Kelvin)      0.15909     0.03375     0.03228
 Rotational constants (GHZ):           3.31494     0.70334     0.67254
    1 imaginary frequencies ignored.
 Zero-point vibrational energy     207080.3 (Joules/Mol)
                                   49.49338 (Kcal/Mol)
 Warning -- explicit consideration of  12 degrees of freedom as
           vibrations may cause significant error
 Vibrational temperatures:     64.70   140.60   144.66   229.88   306.24
          (Kelvin)            370.62   577.17   620.34   790.55   803.86
                              807.76   836.81   957.51   984.46  1097.82
                             1140.76  1179.21  1210.79  1378.73  1528.11
                             1613.48  1645.03  1742.38  1919.56  1955.35
                             2095.03  2233.41  2487.01  4082.94  4614.02
                             4833.45  5419.81

 Zero-point correction=                           0.078873 (Hartree/Particle)
 Thermal correction to Energy=                    0.087701
 Thermal correction to Enthalpy=                  0.088646
 Thermal correction to Gibbs Free Energy=         0.043604
 Sum of electronic and zero-point Energies=           -943.936901
 Sum of electronic and thermal Energies=              -943.928072
 Sum of electronic and thermal Enthalpies=            -943.927128
 Sum of electronic and thermal Free Energies=         -943.972169

                     E (Thermal)             CV                S
                      KCal/Mol        Cal/Mol-Kelvin    Cal/Mol-Kelvin
 Total                   55.033             30.838             94.797
 Electronic               0.000              0.000              0.000
 Translational            0.889              2.981             41.081
 Rotational               0.889              2.981             29.707
 Vibrational             53.256             24.876             24.009
 Vibration     1          0.595              1.979              5.027
 Vibration     2          0.603              1.951              3.499
 Vibration     3          0.604              1.949              3.444
 Vibration     4          0.622              1.892              2.552
 Vibration     5          0.644              1.821              2.019
 Vibration     6          0.667              1.750              1.678
 Vibration     7          0.767              1.468              0.958
 Vibration     8          0.792              1.402              0.855
 Vibration     9          0.905              1.141              0.545
 Vibration    10          0.914              1.121              0.526
 Vibration    11          0.917              1.115              0.521
 Vibration    12          0.938              1.071              0.482

 Normal termination of Gaussian 09 at Sun Nov  8 09:00:21 2020.
