 Gaussian 09, Revision D.01,
 Gaussian 09:  ES64L-G09RevD.01 24-Apr-2013

 ------------------------------------------------
 #n wB97XD/Def2TZVP scrf(smd,solvent=toluene) opt
 ------------------------------------------------

 -------------------------------------------
 dmad cycloaddition toluene with water - opt
 -------------------------------------------
 Symbolic Z-matrix:
 Charge =  0 Multiplicity = 1

 SCF Done:  E(RwB97XD) =  -872.247043261     A.U. after   16 cycles
 SCF Done:  E(RwB97XD) =  -872.246933918     A.U. after   12 cycles
 SCF Done:  E(RwB97XD) =  -872.246963402     A.U. after   13 cycles
 SCF Done:  E(RwB97XD) =  -872.246878219     A.U. after   12 cycles
 SCF Done:  E(RwB97XD) =  -872.247077127     A.U. after   12 cycles
 SCF Done:  E(RwB97XD) =  -872.247084745     A.U. after   11 cycles
 SCF Done:  E(RwB97XD) =  -872.247089028     A.U. after   10 cycles
 SCF Done:  E(RwB97XD) =  -872.247096105     A.U. after    9 cycles
 SCF Done:  E(RwB97XD) =  -872.247101242     A.U. after   10 cycles
 SCF Done:  E(RwB97XD) =  -872.247099253     A.U. after   11 cycles
 SCF Done:  E(RwB97XD) =  -872.247110529     A.U. after   11 cycles
 SCF Done:  E(RwB97XD) =  -872.247109404     A.U. after   10 cycles
 SCF Done:  E(RwB97XD) =  -872.247112394     A.U. after   10 cycles
 SCF Done:  E(RwB97XD) =  -872.247113691     A.U. after    8 cycles
 SCF Done:  E(RwB97XD) =  -872.247114475     A.U. after    8 cycles
 SCF Done:  E(RwB97XD) =  -872.247116010     A.U. after    9 cycles
 SCF Done:  E(RwB97XD) =  -872.247116619     A.U. after    8 cycles
 SCF Done:  E(RwB97XD) =  -872.247117131     A.U. after    8 cycles
 SCF Done:  E(RwB97XD) =  -872.247117114     A.U. after    8 cycles
 SCF Done:  E(RwB97XD) =  -872.247116894     A.U. after    8 cycles
 Optimization completed.
    -- Stationary point found.

                         Standard orientation:
 ---------------------------------------------------------------------
 Center     Atomic      Atomic             Coordinates (Angstroms)
 Number     Number       Type             X           Y           Z
 ---------------------------------------------------------------------
      1          7           0        0.301160   -0.348787   -1.015087
      2          7           0       -0.329220   -0.693778   -0.024115
      3          6           0        1.708064   -0.199695   -0.765077
      4          6           0       -1.772917   -0.753769   -0.295593
      5          8           0       -2.305487   -0.341857   -1.284480
      6          8           0        2.179866    0.895201   -0.611465
      7          8           0       -2.322920   -1.367311    0.714232
      8          8           0        2.323659   -1.340954   -0.847025
      9          6           0        3.740438   -1.319189   -0.588690
     10          1           0        4.071391   -2.345281   -0.716314
     11          1           0        4.240825   -0.663891   -1.300025
     12          1           0        3.912158   -0.983905    0.432520
     13          6           0       -3.752579   -1.470797    0.685936
     14          1           0       -4.192493   -0.474593    0.707936
     15          1           0       -4.077619   -2.004496   -0.206398
     16          1           0       -4.022724   -2.024357    1.580459
     17          8           0        1.175301    2.113500    1.741066
     18          1           0        1.589993    1.973621    0.877579
     19          1           0        1.534725    2.928814    2.096186
     20          8           0        1.690593   -0.695001    2.271090
     21          1           0        1.572517    0.261195    2.345442
     22          1           0        0.869502   -0.994324    1.867303
     23          8           0       -1.594921    1.762736    0.928682
     24          1           0       -1.504195    2.146287    0.043731
     25          1           0       -0.740942    1.919798    1.352734
     26          8           0       -1.237680    2.275886   -1.899601
     27          1           0       -1.552857    1.365010   -1.987457
     28          1           0       -0.309186    2.237179   -2.138727
 ---------------------------------------------------------------------

 The electronic state is 1-A.
 Alpha  occ. eigenvalues --  -19.33594 -19.32669 -19.27719 -19.26971 -19.26696
 Alpha  occ. eigenvalues --  -19.24646 -19.22535 -19.21749 -14.54201 -14.53950
 Alpha  occ. eigenvalues --  -10.47366 -10.46169 -10.34970 -10.34473  -1.27185
 Alpha  occ. eigenvalues --   -1.25538  -1.19143  -1.16898  -1.15485  -1.13351
 Alpha  occ. eigenvalues --   -1.11080  -1.08919  -1.08019  -0.92267  -0.85940
 Alpha  occ. eigenvalues --   -0.81362  -0.71319  -0.67856  -0.66078  -0.65081
 Alpha  occ. eigenvalues --   -0.63370  -0.62156  -0.61736  -0.60565  -0.59847
 Alpha  occ. eigenvalues --   -0.59430  -0.58917  -0.57629  -0.54810  -0.54189
 Alpha  occ. eigenvalues --   -0.53261  -0.51156  -0.50268  -0.48851  -0.47992
 Alpha  occ. eigenvalues --   -0.47628  -0.46836  -0.46482  -0.45229  -0.42962
 Alpha  occ. eigenvalues --   -0.42574  -0.41944  -0.41622  -0.41525  -0.40072
 Alpha  occ. eigenvalues --   -0.38384  -0.37627  -0.35738
 Alpha virt. eigenvalues --   -0.04220   0.06013   0.09458   0.10882   0.12833
 Alpha virt. eigenvalues --    0.13408   0.13798   0.14990   0.15324   0.17668
 Alpha virt. eigenvalues --    0.18605   0.18862   0.19692   0.20693   0.21384

 Mulliken charges:
               1
     1  N   -0.108223
     2  N   -0.098602
     3  C    0.422417
     4  C    0.473618
     5  O   -0.389863
     6  O   -0.412068
     7  O   -0.233474
     8  O   -0.228040
     9  C   -0.198961
    10  H    0.159027
    11  H    0.152431
    12  H    0.165896
    13  C   -0.212199
    14  H    0.164762
    15  H    0.149724
    16  H    0.155886
    17  O   -0.709590
    18  H    0.356176
    19  H    0.363630
    20  O   -0.667028
    21  H    0.343251
    22  H    0.340050
    23  O   -0.693515
    24  H    0.340055
    25  H    0.348513
    26  O   -0.679093
    27  H    0.351976
    28  H    0.343247
 Sum of Mulliken charges =   0.00000

 Dipole moment (field-independent basis, Debye):
    X=              2.7583    Y=             -1.8889    Z=             -0.9252  Tot=              3.4688
 Quadrupole moment (field-independent basis, Debye-Ang):
   XX=            -65.0372   YY=            -78.2194   ZZ=            -90.3706
   XY=             13.9332   XZ=             -9.7751   YZ=              7.8309

 Normal termination of Gaussian 09 at Wed Feb 23 18:45:51 2022.
