 Gaussian 09, Revision D.01,
 Gaussian 09:  ES64L-G09RevD.01 24-Apr-2013

 -------------------------------------------------
 #n wB97XD/Def2TZVP scrf(smd,solvent=toluene) freq
 -------------------------------------------------

 ---------------------------------------
 dmad cycloaddition water toluene - freq
 ---------------------------------------
 Symbolic Z-matrix:
 Charge =  0 Multiplicity = 1

                         Standard orientation:
 ---------------------------------------------------------------------
 Center     Atomic      Atomic             Coordinates (Angstroms)
 Number     Number       Type             X           Y           Z
 ---------------------------------------------------------------------
      1          7           0        0.301160   -0.348790   -1.015089
      2          7           0       -0.329220   -0.693780   -0.024119
      3          6           0        1.708060   -0.199700   -0.765079
      4          6           0       -1.772920   -0.753770   -0.295589
      5          8           0       -2.305490   -0.341860   -1.284479
      6          8           0        2.179870    0.895200   -0.611469
      7          8           0       -2.322920   -1.367310    0.714231
      8          8           0        2.323660   -1.340950   -0.847029
      9          6           0        3.740440   -1.319190   -0.588689
     10          1           0        4.071390   -2.345280   -0.716309
     11          1           0        4.240830   -0.663890   -1.300019
     12          1           0        3.912160   -0.983910    0.432521
     13          6           0       -3.752580   -1.470800    0.685941
     14          1           0       -4.192490   -0.474590    0.707941
     15          1           0       -4.077620   -2.004500   -0.206399
     16          1           0       -4.022720   -2.024360    1.580461
     17          8           0        1.175301    2.113500    1.741071
     18          1           0        1.589990    1.973620    0.877581
     19          1           0        1.534721    2.928810    2.096191
     20          8           0        1.690590   -0.695000    2.271091
     21          1           0        1.572520    0.261200    2.345441
     22          1           0        0.869500   -0.994320    1.867301
     23          8           0       -1.594920    1.762740    0.928681
     24          1           0       -1.504189    2.146290    0.043731
     25          1           0       -0.740940    1.919800    1.352731
     26          8           0       -1.237679    2.275890   -1.899599
     27          1           0       -1.552860    1.365010   -1.987459
     28          1           0       -0.309189    2.237180   -2.138729
 ---------------------------------------------------------------------

 SCF Done:  E(RwB97XD) =  -872.247116894     A.U. after   16 cycles

 The electronic state is 1-A.
 Alpha  occ. eigenvalues --  -19.33594 -19.32669 -19.27719 -19.26971 -19.26696
 Alpha  occ. eigenvalues --  -19.24646 -19.22535 -19.21749 -14.54201 -14.53951
 Alpha  occ. eigenvalues --  -10.47366 -10.46169 -10.34970 -10.34473  -1.27185
 Alpha  occ. eigenvalues --   -1.25539  -1.19143  -1.16897  -1.15485  -1.13351
 Alpha  occ. eigenvalues --   -1.11080  -1.08919  -1.08019  -0.92267  -0.85940
 Alpha  occ. eigenvalues --   -0.81362  -0.71319  -0.67856  -0.66078  -0.65081
 Alpha  occ. eigenvalues --   -0.63370  -0.62156  -0.61736  -0.60565  -0.59847
 Alpha  occ. eigenvalues --   -0.59430  -0.58917  -0.57629  -0.54810  -0.54189
 Alpha  occ. eigenvalues --   -0.53261  -0.51156  -0.50268  -0.48851  -0.47992
 Alpha  occ. eigenvalues --   -0.47628  -0.46836  -0.46482  -0.45229  -0.42962
 Alpha  occ. eigenvalues --   -0.42574  -0.41944  -0.41622  -0.41525  -0.40072
 Alpha  occ. eigenvalues --   -0.38384  -0.37627  -0.35738
 Alpha virt. eigenvalues --   -0.04220   0.06013   0.09458   0.10882   0.12833
 Alpha virt. eigenvalues --    0.13408   0.13798   0.14990   0.15324   0.17668
 Alpha virt. eigenvalues --    0.18605   0.18862   0.19692   0.20693   0.21384

 Mulliken charges:
               1
     1  N   -0.108222
     2  N   -0.098601
     3  C    0.422419
     4  C    0.473617
     5  O   -0.389866
     6  O   -0.412079
     7  O   -0.233472
     8  O   -0.228038
     9  C   -0.198960
    10  H    0.159028
    11  H    0.152431
    12  H    0.165897
    13  C   -0.212199
    14  H    0.164763
    15  H    0.149724
    16  H    0.155887
    17  O   -0.709590
    18  H    0.356177
    19  H    0.363629
    20  O   -0.667030
    21  H    0.343252
    22  H    0.340050
    23  O   -0.693515
    24  H    0.340054
    25  H    0.348513
    26  O   -0.679094
    27  H    0.351977
    28  H    0.343247
 Sum of Mulliken charges =   0.00000

 Dipole moment (field-independent basis, Debye):
    X=              2.7582    Y=             -1.8890    Z=             -0.9252  Tot=              3.4687
 Quadrupole moment (field-independent basis, Debye-Ang):
   XX=            -65.0371   YY=            -78.2194   ZZ=            -90.3706
   XY=             13.9332   XZ=             -9.7751   YZ=              7.8309

  Exact polarizability: 141.709   4.173 108.862  -7.510  -3.703 104.820
 Approx polarizability: 118.720   5.653 109.458  -3.870  -5.023 108.412

                      1                      2                      3
                      A                      A                      A
 Frequencies --     35.8979                56.3850                60.7199
 Red. masses --      5.4271                 5.0893                 4.3703
 Frc consts  --      0.0041                 0.0095                 0.0095
 IR Inten    --      2.0827                 1.0193                 2.1720

                      4                      5                      6
                      A                      A                      A
 Frequencies --     65.1084                74.0669                77.1679
 Red. masses --      4.8058                 5.2560                 4.4974
 Frc consts  --      0.0120                 0.0170                 0.0158
 IR Inten    --      3.8059                 7.9664                 6.1019

                      7                      8                      9
                      A                      A                      A
 Frequencies --     89.3222                94.6963               116.2850
 Red. masses --      2.1941                 2.9597                 6.3812
 Frc consts  --      0.0103                 0.0156                 0.0508
 IR Inten    --      6.4851                 2.7627                 2.6284

                     10                     11                     12
                      A                      A                      A
 Frequencies --    122.2427               127.6341               130.2203
 Red. masses --      4.6221                 8.0039                 5.6556
 Frc consts  --      0.0407                 0.0768                 0.0565
 IR Inten    --      6.7262                 1.8170                 4.0811

                     13                     14                     15
                      A                      A                      A
 Frequencies --    134.8904               153.3152               164.1835
 Red. masses --      1.1322                 3.5960                 4.8439
 Frc consts  --      0.0121                 0.0498                 0.0769
 IR Inten    --      0.3195                13.7113                 5.7386

                     16                     17                     18
                      A                      A                      A
 Frequencies --    183.8909               196.4119               199.2700
 Red. masses --      5.8221                 4.6291                 5.3925
 Frc consts  --      0.1160                 0.1052                 0.1262
 IR Inten    --      3.2994                 1.0168                 1.8718

                     19                     20                     21
                      A                      A                      A
 Frequencies --    206.3452               232.4095               250.5860
 Red. masses --      5.8690                 1.5930                 1.2392
 Frc consts  --      0.1472                 0.0507                 0.0458
 IR Inten    --      2.4332                78.7655                49.2136

                     22                     23                     24
                      A                      A                      A
 Frequencies --    263.0329               284.9919               298.0977
 Red. masses --      1.8332                 5.3579                 1.1857
 Frc consts  --      0.0747                 0.2564                 0.0621
 IR Inten    --     63.9767                13.4962                77.5468

                     25                     26                     27
                      A                      A                      A
 Frequencies --    310.4440               320.3007               329.9360
 Red. masses --      4.2131                 3.1670                 1.1498
 Frc consts  --      0.2392                 0.1914                 0.0737
 IR Inten    --     22.7412                41.7715                32.0645

                     28                     29                     30
                      A                      A                      A
 Frequencies --    387.4056               432.4550               469.8623
 Red. masses --      1.0579                 1.3860                 1.7767
 Frc consts  --      0.0935                 0.1527                 0.2311
 IR Inten    --    104.2812                35.6086                30.2386

                     31                     32                     33
                      A                      A                      A
 Frequencies --    484.5254               511.2148               530.7496
 Red. masses --      1.5219                 1.0449                 4.3436
 Frc consts  --      0.2105                 0.1609                 0.7209
 IR Inten    --     36.0540               370.0833                 6.6805

                     34                     35                     36
                      A                      A                      A
 Frequencies --    541.1928               650.7684               663.1926
 Red. masses --      1.1284                 1.0589                 6.6677
 Frc consts  --      0.1947                 0.2642                 1.7279
 IR Inten    --    269.4046               259.8925                 6.3651

                     37                     38                     39
                      A                      A                      A
 Frequencies --    684.3948               746.7147               756.0831
 Red. masses --      1.0812                 4.3136                 1.2494
 Frc consts  --      0.2984                 1.4171                 0.4208
 IR Inten    --     98.4115                78.4608               194.8329

                     40                     41                     42
                      A                      A                      A
 Frequencies --    801.2898               856.6931               919.3080
 Red. masses --      7.9892                 6.7848                 5.7211
 Frc consts  --      3.0223                 2.9339                 2.8487
 IR Inten    --     19.6829                15.4631                82.5536

                     43                     44                     45
                      A                      A                      A
 Frequencies --    998.5323              1044.8703              1068.8442
 Red. masses --      9.1456                 8.9109                 8.3040
 Frc consts  --      5.3726                 5.7319                 5.5894
 IR Inten    --      5.3479                 0.7539                42.8898

                     46                     47                     48
                      A                      A                      A
 Frequencies --   1186.2461              1187.6822              1221.6176
 Red. masses --      1.2816                 1.2888                 1.5205
 Frc consts  --      1.0626                 1.0712                 1.3369
 IR Inten    --      0.6762                 1.3873                 2.5478

                     49                     50                     51
                      A                      A                      A
 Frequencies --   1225.2610              1334.1204              1361.7871
 Red. masses --      1.5022                 6.0054                 5.1100
 Frc consts  --      1.3288                 6.2978                 5.5833
 IR Inten    --     22.7090              1068.6914               234.2898

                     52                     53                     54
                      A                      A                      A
 Frequencies --   1482.1708              1484.9562              1486.7906
 Red. masses --      1.0457                 1.2566                 1.0457
 Frc consts  --      1.3535                 1.6326                 1.3620
 IR Inten    --     17.0864                67.3205                17.5236

                     55                     56                     57
                      A                      A                      A
 Frequencies --   1489.6374              1490.2963              1494.7641
 Red. masses --      1.0792                 1.1548                 1.1173
 Frc consts  --      1.4110                 1.5111                 1.4709
 IR Inten    --     20.3423                18.3031                26.8946

                     58                     59                     60
                      A                      A                      A
 Frequencies --   1623.6829              1634.7001              1677.3568
 Red. masses --      1.0873                 1.0830                 1.0822
 Frc consts  --      1.6889                 1.7051                 1.7939
 IR Inten    --    148.9851                80.3275               102.4954

                     61                     62                     63
                      A                      A                      A
 Frequencies --   1693.3126              1717.6896              1829.7405
 Red. masses --      1.0785                13.6124                10.3447
 Frc consts  --      1.8220                23.6633                20.4055
 IR Inten    --     79.9685                 6.2561               418.0185

                     64                     65                     66
                      A                      A                      A
 Frequencies --   1857.4018              3084.3906              3092.2402
 Red. masses --     11.3019                 1.0305                 1.0296
 Frc consts  --     22.9727                 5.7759                 5.8007
 IR Inten    --    422.2626                21.1782                22.4662

                     67                     68                     69
                      A                      A                      A
 Frequencies --   3172.1023              3185.2470              3200.2428
 Red. masses --      1.1080                 1.1088                 1.1076
 Frc consts  --      6.5687                 6.6283                 6.6836
 IR Inten    --      8.9330                 5.2582                 7.8870

                     70                     71                     72
                      A                      A                      A
 Frequencies --   3209.9473              3703.9647              3724.7355
 Red. masses --      1.1080                 1.0507                 1.0558
 Frc consts  --      6.7263                 8.4927                 8.6300
 IR Inten    --      5.6152               127.7679               134.9235

                     73                     74                     75
                      A                      A                      A
 Frequencies --   3741.9221              3762.1376              3795.4868
 Red. masses --      1.0538                 1.0550                 1.0748
 Frc consts  --      8.6935                 8.7982                 9.1229
 IR Inten    --    214.9324               364.9750               337.3399

                     76                     77                     78
                      A                      A                      A
 Frequencies --   3859.8157              3912.7396              3917.2812
 Red. masses --      1.0757                 1.0721                 1.0735
 Frc consts  --      9.4425                 9.6703                 9.7054
 IR Inten    --    214.8057                89.3494               157.1360

 - Thermochemistry -
 -------------------
 Temperature   298.150 Kelvin.  Pressure   1.00000 Atm.
 Atom     1 has atomic number  7 and mass  14.00307

 Molecular mass:   218.07502 amu.
 Principal axes and moments of inertia in atomic units:
                           1         2         3
     Eigenvalues --  2531.009594679.952964947.90504
           X            0.99999   0.00306  -0.00372
           Y           -0.00301   0.99993   0.01165
           Z            0.00376  -0.01164   0.99993
 This molecule is an asymmetric top.
 Rotational symmetry number  1.
 Warning -- assumption of classical behavior for rotation
           may cause significant error
 Rotational temperatures (Kelvin)      0.03422     0.01851     0.01751
 Rotational constants (GHZ):           0.71305     0.38563     0.36475
 Zero-point vibrational energy     568031.3 (Joules/Mol)
                                  135.76274 (Kcal/Mol)
 Warning -- explicit consideration of  34 degrees of freedom as
           vibrations may cause significant error
 Vibrational temperatures:     51.65    81.13    87.36    93.68   106.57
          (Kelvin)            111.03   128.51   136.25   167.31   175.88
                              183.64   187.36   194.08   220.59   236.22
                              264.58   282.59   286.70   296.88   334.39
                              360.54   378.45   410.04   428.90   446.66
                              460.84   474.70   557.39   622.21   676.03
                              697.12   735.52   763.63   778.65   936.31
                              954.19   984.69  1074.35  1087.83  1152.88
                             1232.59  1322.68  1436.66  1503.33  1537.83
                             1706.74  1708.81  1757.63  1762.88  1919.50
                             1959.31  2132.51  2136.52  2139.16  2143.25
                             2144.20  2150.63  2336.11  2351.97  2413.34
                             2436.30  2471.37  2632.59  2672.38  4437.74
                             4449.04  4563.94  4582.85  4604.43  4618.39
                             5329.17  5359.06  5383.78  5412.87  5460.85
                             5553.41  5629.55  5636.09

 Zero-point correction=                           0.216352 (Hartree/Particle)
 Thermal correction to Energy=                    0.238701
 Thermal correction to Enthalpy=                  0.239645
 Thermal correction to Gibbs Free Energy=         0.165000
 Sum of electronic and zero-point Energies=           -872.030765
 Sum of electronic and thermal Energies=              -872.008416
 Sum of electronic and thermal Enthalpies=            -872.007472
 Sum of electronic and thermal Free Energies=         -872.082117

                     E (Thermal)             CV                S
                      KCal/Mol        Cal/Mol-Kelvin    Cal/Mol-Kelvin
 Total                  149.787             73.777            157.104
 Electronic               0.000              0.000              0.000
 Translational            0.889              2.981             42.042
 Rotational               0.889              2.981             32.438
 Vibrational            148.009             67.815             82.623
 Vibration     1          0.594              1.982              5.474
 Vibration     2          0.596              1.975              4.580
 Vibration     3          0.597              1.973              4.434
 Vibration     4          0.597              1.971              4.296
 Vibration     5          0.599              1.966              4.042
 Vibration     6          0.599              1.964              3.962
 Vibration     7          0.602              1.957              3.675
 Vibration     8          0.603              1.953              3.561
 Vibration     9          0.608              1.936              3.161
 Vibration    10          0.610              1.931              3.065
 Vibration    11          0.611              1.926              2.981
 Vibration    12          0.612              1.923              2.943
 Vibration    13          0.613              1.919              2.875
 Vibration    14          0.619              1.899              2.631
 Vibration    15          0.623              1.886              2.501
 Vibration    16          0.631              1.862              2.289
 Vibration    17          0.636              1.845              2.166
 Vibration    18          0.637              1.841              2.140
 Vibration    19          0.641              1.831              2.076
 Vibration    20          0.653              1.791              1.860
 Vibration    21          0.663              1.762              1.726
 Vibration    22          0.670              1.741              1.642
 Vibration    23          0.683              1.702              1.504
 Vibration    24          0.691              1.677              1.428
 Vibration    25          0.699              1.654              1.360
 Vibration    26          0.706              1.635              1.309
 Vibration    27          0.713              1.616              1.260
 Vibration    28          0.756              1.497              1.010
 Vibration    29          0.793              1.400              0.851
 Vibration    30          0.827              1.317              0.738
 Vibration    31          0.841              1.284              0.698
 Vibration    32          0.866              1.225              0.631
 Vibration    33          0.886              1.182              0.586
 Vibration    34          0.896              1.159              0.563

 Normal termination of Gaussian 09 at Thu Feb 24 23:57:42 2022.
