 Gaussian 09, Revision D.01,
 Gaussian 09:  ES64L-G09RevD.01 24-Apr-2013

 ----------------------------------------------------------------------
 #n wB97XD/Def2TZVP scrf(smd,solvent=toluene) freq int=(grid=ultrafine)
 ----------------------------------------------------------------------

 -----------------------------
 ts cylco water toluene - freq
 -----------------------------
 Symbolic Z-matrix:
 Charge =  0 Multiplicity = 1

                         Standard orientation:
 ---------------------------------------------------------------------
 Center     Atomic      Atomic             Coordinates (Angstroms)
 Number     Number       Type             X           Y           Z
 ---------------------------------------------------------------------
      1          6           0       -0.505939   -1.070101   -1.190569
      2          6           0       -1.582928   -1.950822   -0.487279
      3          6           0        0.431933   -2.861699    0.124911
      4          6           0        0.764572   -1.853009   -0.936539
      5          1           0       -0.689420   -0.524031   -2.101339
      6          1           0        1.754811   -1.514707   -1.191309
      7          6           0       -0.899257   -2.506621    0.749881
      8          1           0       -1.436476   -3.376162    1.128441
      9          1           0       -0.796368   -1.765981    1.540091
     10          6           0       -1.125287   -2.701432   -1.630969
     11          1           0       -1.614757   -2.744042   -2.591489
     12          6           0        0.212184   -3.245330   -1.304859
     13          1           0        0.749785   -3.987409   -1.870169
     14          1           0       -2.589089   -1.556494   -0.456049
     15          1           0        1.240184   -3.305958    0.684011
     16          7           0        0.632489    0.242051    0.870711
     17          7           0       -0.182842    0.568820   -0.077719
     18          6           0        1.972798    0.414063    0.557131
     19          6           0       -1.517172    0.783848    0.391301
     20          8           0       -1.874242    0.745377    1.539901
     21          8           0        2.843079    0.070444    1.328731
     22          8           0       -2.278153    1.107887   -0.636579
     23          8           0        2.233398    1.008043   -0.616869
     24          6           0        3.609557    1.190856   -0.941139
     25          1           0        3.621677    1.687906   -1.908739
     26          1           0        4.107056    1.811746   -0.196349
     27          1           0        4.125539    0.233036   -1.013769
     28          6           0       -3.607993    1.540324   -0.332829
     29          1           0       -4.176092    0.739514    0.141271
     30          1           0       -3.569255    2.416235    0.313071
     31          1           0       -4.051184    1.802354   -1.289839
     32          8           0       -1.422417    4.026178    0.381201
     33          1           0       -0.894367    3.745479   -0.384579
     34          1           0       -0.954827    3.687089    1.146531
     35          8           0       -3.946939   -1.209596    1.811111
     36          1           0       -4.333189   -1.361347    2.674831
     37          1           0       -3.286060   -0.515375    1.938981
     38          8           0        0.176925    2.957020   -1.735459
     39          1           0        1.090804    3.245772   -1.700489
     40          1           0        0.191066    2.060110   -1.358569
     41          8           0        5.671579   -0.258061    1.344921
     42          1           0        4.710779   -0.131773    1.345951
     43          1           0        5.911200   -0.340851    2.268651
 ---------------------------------------------------------------------

 SCF Done:  E(RwB97XD) =  -1143.67571623     A.U. after   17 cycles

 The electronic state is 1-A.
 Alpha  occ. eigenvalues --  -19.30725 -19.30112 -19.24913 -19.24281 -19.23743
 Alpha  occ. eigenvalues --  -19.23295 -19.21957 -19.21750 -14.50797 -14.45686
 Alpha  occ. eigenvalues --  -10.44538 -10.43036 -10.36085 -10.35102 -10.33654
 Alpha  occ. eigenvalues --  -10.33573 -10.33017 -10.33014 -10.32716 -10.31810
 Alpha  occ. eigenvalues --  -10.29559  -1.23819  -1.22348  -1.14439  -1.12459
 Alpha  occ. eigenvalues --   -1.11377  -1.10648  -1.10106  -1.08661  -1.08235
 Alpha  occ. eigenvalues --   -1.08176  -0.91860  -0.90120  -0.85674  -0.83205
 Alpha  occ. eigenvalues --   -0.80652  -0.79561  -0.69708  -0.68729  -0.67364
 Alpha  occ. eigenvalues --   -0.66970  -0.65718  -0.65549  -0.63740  -0.62312
 Alpha  occ. eigenvalues --   -0.62041  -0.60083  -0.59653  -0.59475  -0.59002
 Alpha  occ. eigenvalues --   -0.58104  -0.57341  -0.56521  -0.55540  -0.55007
 Alpha  occ. eigenvalues --   -0.53397  -0.51855  -0.51255  -0.50723  -0.50023
 Alpha  occ. eigenvalues --   -0.49329  -0.48565  -0.47833  -0.46939  -0.46135
 Alpha  occ. eigenvalues --   -0.45917  -0.45467  -0.45200  -0.45096  -0.44174
 Alpha  occ. eigenvalues --   -0.43671  -0.40628  -0.40395  -0.39873  -0.39526
 Alpha  occ. eigenvalues --   -0.39224  -0.39171  -0.38708  -0.37869  -0.37676
 Alpha  occ. eigenvalues --   -0.37463  -0.33431  -0.28076
 Alpha virt. eigenvalues --   -0.05225   0.07145   0.09392   0.10166   0.11476
 Alpha virt. eigenvalues --    0.11866   0.12268   0.14069   0.14260   0.14736
 Alpha virt. eigenvalues --    0.15541   0.15789   0.16031   0.16487   0.16848

 Mulliken charges:
               1
     1  C   -0.105120
     2  C   -0.076602
     3  C   -0.098264
     4  C   -0.167717
     5  H    0.183820
     6  H    0.169665
     7  C   -0.148024
     8  H    0.125831
     9  H    0.156884
    10  C   -0.081924
    11  H    0.183524
    12  C   -0.085545
    13  H    0.164293
    14  H    0.182199
    15  H    0.152459
    16  N   -0.296142
    17  N   -0.064109
    18  C    0.431283
    19  C    0.328906
    20  O   -0.390606
    21  O   -0.456026
    22  O   -0.244681
    23  O   -0.310612
    24  C   -0.242439
    25  H    0.142520
    26  H    0.157511
    27  H    0.152373
    28  C   -0.213446
    29  H    0.139654
    30  H    0.166346
    31  H    0.145416
    32  O   -0.677390
    33  H    0.355401
    34  H    0.333644
    35  O   -0.678323
    36  H    0.337195
    37  H    0.339319
    38  O   -0.679203
    39  H    0.340399
    40  H    0.350329
    41  O   -0.692183
    42  H    0.341177
    43  H    0.328209
 Sum of Mulliken charges =   0.00000

 Dipole moment (field-independent basis, Debye):
    X=             -1.9408    Y=             -6.6128    Z=             -4.1229  Tot=              8.0308
 Quadrupole moment (field-independent basis, Debye-Ang):
   XX=           -136.3786   YY=           -125.1980   ZZ=           -115.3741
   XY=             12.9672   XZ=             -4.4359   YZ=              6.4421

  Exact polarizability: 241.920  30.192 266.296  19.763  38.046 201.068
 Approx polarizability: 220.481  27.760 246.705  27.823  41.732 228.070

 ******    1 imaginary frequencies (negative Signs) ******

                      1                      2                      3
                      A                      A                      A
 Frequencies --   -576.6840                19.3463                26.0701
 Red. masses --      9.3142                 5.5574                 6.0288
 Frc consts  --      1.8250                 0.0012                 0.0024
 IR Inten    --   2202.1679                 2.4716                 1.2002

                      4                      5                      6
                      A                      A                      A
 Frequencies --     29.9886                36.2478                40.9875
 Red. masses --      5.5096                 4.7078                 5.3830
 Frc consts  --      0.0029                 0.0036                 0.0053
 IR Inten    --      1.8262                 6.6790                 2.3126

                      7                      8                      9
                      A                      A                      A
 Frequencies --     48.0242                59.4186                65.7286
 Red. masses --      6.2306                 5.1561                 6.0760
 Frc consts  --      0.0085                 0.0107                 0.0155
 IR Inten    --      2.2896                 1.3614                 4.0944

                     10                     11                     12
                      A                      A                      A
 Frequencies --     76.9246                82.2250                85.2025
 Red. masses --      5.7269                 4.4330                 6.9403
 Frc consts  --      0.0200                 0.0177                 0.0297
 IR Inten    --      1.4446                15.5269                 6.5329

                     13                     14                     15
                      A                      A                      A
 Frequencies --     86.4111                98.9419               101.5793
 Red. masses --      4.3984                 1.1796                 1.1225
 Frc consts  --      0.0194                 0.0068                 0.0068
 IR Inten    --      5.4572                70.6161               147.8439

                     16                     17                     18
                      A                      A                      A
 Frequencies --    114.4020               125.2017               137.2129
 Red. masses --      2.5352                 4.1499                 1.8965
 Frc consts  --      0.0195                 0.0383                 0.0210
 IR Inten    --     22.8552                19.1685                 3.9626

                     19                     20                     21
                      A                      A                      A
 Frequencies --    142.9235               147.2577               163.4684
 Red. masses --      2.9227                 4.5341                 3.9383
 Frc consts  --      0.0352                 0.0579                 0.0620
 IR Inten    --      2.5578                 7.9591                20.8562

                     22                     23                     24
                      A                      A                      A
 Frequencies --    172.5731               180.8269               190.9584
 Red. masses --      5.0131                 3.8588                 4.3582
 Frc consts  --      0.0880                 0.0743                 0.0936
 IR Inten    --      6.8086                 1.3503                 5.4357

                     25                     26                     27
                      A                      A                      A
 Frequencies --    200.0694               208.7139               222.1006
 Red. masses --      5.4132                 1.1797                 4.5555
 Frc consts  --      0.1277                 0.0303                 0.1324
 IR Inten    --     32.1882                 2.1950                21.4026

                     28                     29                     30
                      A                      A                      A
 Frequencies --    249.6144               270.6200               291.1320
 Red. masses --      1.0884                 3.4972                 1.0771
 Frc consts  --      0.0400                 0.1509                 0.0538
 IR Inten    --    136.8577                40.1186                48.2541

                     31                     32                     33
                      A                      A                      A
 Frequencies --    298.9769               329.6025               334.4331
 Red. masses --      5.7288                 1.4651                 2.3967
 Frc consts  --      0.3017                 0.0938                 0.1579
 IR Inten    --     29.6262                39.1359                56.7019

                     34                     35                     36
                      A                      A                      A
 Frequencies --    343.8096               345.8948               356.4373
 Red. masses --      5.2521                 1.1139                 1.0733
 Frc consts  --      0.3658                 0.0785                 0.0803
 IR Inten    --     11.6883               113.5161               149.0226

                     37                     38                     39
                      A                      A                      A
 Frequencies --    390.4558               436.2725               445.2590
 Red. masses --      1.0576                 6.4428                 2.0881
 Frc consts  --      0.0950                 0.7225                 0.2439
 IR Inten    --    102.2166                53.2896                 3.5738

                     40                     41                     42
                      A                      A                      A
 Frequencies --    461.6433               511.6323               535.2470
 Red. masses --      5.4734                 1.0452                 2.9530
 Frc consts  --      0.6873                 0.1612                 0.4984
 IR Inten    --     54.5957               113.8359                 4.9512

                     43                     44                     45
                      A                      A                      A
 Frequencies --    579.1724               615.8405               638.3722
 Red. masses --      1.0462                 8.5858                 3.9142
 Frc consts  --      0.2068                 1.9185                 0.9398
 IR Inten    --    105.3046                28.8479                16.5340

                     46                     47                     48
                      A                      A                      A
 Frequencies --    653.9131               682.3934               714.4284
 Red. masses --      1.1397                 5.8683                 6.4850
 Frc consts  --      0.2871                 1.6100                 1.9502
 IR Inten    --    156.3608                54.8365                34.3820

                     49                     50                     51
                      A                      A                      A
 Frequencies --    740.1081               767.3200               794.1848
 Red. masses --      3.0194                 1.9363                 3.1890
 Frc consts  --      0.9744                 0.6717                 1.1851
 IR Inten    --    199.7265                54.6451                75.0547

                     52                     53                     54
                      A                      A                      A
 Frequencies --    801.1335               803.7652               808.1558
 Red. masses --      2.6661                 3.9234                 1.7725
 Frc consts  --      1.0082                 1.4934                 0.6821
 IR Inten    --     50.6229                10.3021                22.9646

                     55                     56                     57
                      A                      A                      A
 Frequencies --    824.3625               831.4226               855.2540
 Red. masses --      2.3973                 2.8602                 1.5678
 Frc consts  --      0.9599                 1.1649                 0.6757
 IR Inten    --     18.9119                10.3047                 8.5819

                     58                     59                     60
                      A                      A                      A
 Frequencies --    884.2435               920.4537               928.6624
 Red. masses --      2.5829                 2.9457                 2.2101
 Frc consts  --      1.1899                 1.4704                 1.1230
 IR Inten    --    217.3218                 6.2287                11.3777

                     61                     62                     63
                      A                      A                      A
 Frequencies --    947.0407               971.4267               986.3238
 Red. masses --      1.8128                 1.6710                 2.8473
 Frc consts  --      0.9579                 0.9291                 1.6320
 IR Inten    --      2.5950                10.8880                43.2151

                     64                     65                     66
                      A                      A                      A
 Frequencies --    994.0285              1016.6272              1043.6637
 Red. masses --      1.8745                 1.4737                 1.9359
 Frc consts  --      1.0913                 0.8974                 1.2424
 IR Inten    --     24.2045                 9.5516                26.2545

                     67                     68                     69
                      A                      A                      A
 Frequencies --   1054.5383              1062.8388              1077.7894
 Red. masses --      1.3379                 1.2234                 1.7127
 Frc consts  --      0.8766                 0.8142                 1.1722
 IR Inten    --      5.8794                 8.5125                 1.2307

                     70                     71                     72
                      A                      A                      A
 Frequencies --   1082.6255              1084.8194              1118.1043
 Red. masses --      1.6189                 3.7405                 1.5067
 Frc consts  --      1.1180                 2.5936                 1.1098
 IR Inten    --      2.7239                 4.5844                33.9545

                     73                     74                     75
                      A                      A                      A
 Frequencies --   1121.0756              1182.8169              1185.3149
 Red. masses --      5.9944                 1.2855                 1.2808
 Frc consts  --      4.4388                 1.0597                 1.0602
 IR Inten    --    142.0386                 2.6667                 0.8702

                     76                     77                     78
                      A                      A                      A
 Frequencies --   1197.0358              1225.4338              1232.4104
 Red. masses --      1.1902                 1.5273                 1.5312
 Frc consts  --      1.0048                 1.3513                 1.3703
 IR Inten    --     22.4468                75.7601                23.1884

                     79                     80                     81
                      A                      A                      A
 Frequencies --   1242.3968              1265.3757              1280.6756
 Red. masses --      1.5931                 1.5167                 3.7751
 Frc consts  --      1.4488                 1.4308                 3.6481
 IR Inten    --    271.8418                77.6727               778.6374

                     82                     83                     84
                      A                      A                      A
 Frequencies --   1306.7894              1309.6594              1310.7223
 Red. masses --      2.2650                 6.5486                 1.9911
 Frc consts  --      2.2790                 6.6178                 2.0154
 IR Inten    --     66.5928               898.2295                56.8342

                     85                     86                     87
                      A                      A                      A
 Frequencies --   1356.6267              1380.0706              1395.9951
 Red. masses --      4.0467                 2.4382                 6.1486
 Frc consts  --      4.3880                 2.7361                 7.0598
 IR Inten    --     98.8607               125.3936               362.8031

                     88                     89                     90
                      A                      A                      A
 Frequencies --   1426.1095              1480.7495              1485.7430
 Red. masses --      2.7426                 1.1417                 1.1419
 Frc consts  --      3.2864                 1.4749                 1.4851
 IR Inten    --     34.7237                39.5523                51.3944

                     91                     92                     93
                      A                      A                      A
 Frequencies --   1492.3995              1493.1029              1497.1917
 Red. masses --      1.0924                 1.0518                 1.1130
 Frc consts  --      1.4335                 1.3815                 1.4699
 IR Inten    --     16.7398                14.1323                17.8463

                     94                     95                     96
                      A                      A                      A
 Frequencies --   1499.0172              1501.6383              1638.0350
 Red. masses --      1.0492                 1.1005                 1.0899
 Frc consts  --      1.3890                 1.4621                 1.7229
 IR Inten    --     16.0279                21.9194               133.2952

                     97                     98                     99
                      A                      A                      A
 Frequencies --   1648.0599              1657.1778              1661.4657
 Red. masses --      1.0885                 1.0778                 1.0763
 Frc consts  --      1.7420                 1.7439                 1.7506
 IR Inten    --    214.7512                88.5250                44.9068

                    100                    101                    102
                      A                      A                      A
 Frequencies --   1759.9074              1802.8456              3069.7395
 Red. masses --     11.0982                10.0573                 1.0306
 Frc consts  --     20.2526                19.2596                 5.7218
 IR Inten    --    903.2000               347.3518                34.0362

                    103                    104                    105
                      A                      A                      A
 Frequencies --   3074.0463              3104.8903              3153.0494
 Red. masses --      1.0312                 1.0615                 1.1073
 Frc consts  --      5.7414                 6.0291                 6.4863
 IR Inten    --     28.7846                18.9661                14.6090

                    106                    107                    108
                      A                      A                      A
 Frequencies --   3164.5685              3166.3755              3175.6861
 Red. masses --      1.1072                 1.1064                 1.1065
 Frc consts  --      6.5331                 6.5359                 6.5747
 IR Inten    --      3.2317                 0.7109                13.9644

                    109                    110                    111
                      A                      A                      A
 Frequencies --   3189.0359              3229.4226              3249.0611
 Red. masses --      1.1069                 1.0928                 1.0936
 Frc consts  --      6.6326                 6.7148                 6.8018
 IR Inten    --      7.7872                 1.4312                 0.4224

                    112                    113                    114
                      A                      A                      A
 Frequencies --   3259.4537              3269.0691              3269.8462
 Red. masses --      1.0914                 1.0933                 1.0940
 Frc consts  --      6.8319                 6.8838                 6.8917
 IR Inten    --      7.7327                 4.6513                 7.8113

                    115                    116                    117
                      A                      A                      A
 Frequencies --   3278.0279              3622.7880              3670.8170
 Red. masses --      1.1001                 1.0598                 1.0584
 Frc consts  --      6.9651                 8.1951                 8.4027
 IR Inten    --      4.5422               682.1022               456.4153

                    118                    119                    120
                      A                      A                      A
 Frequencies --   3704.0052              3741.2000              3911.4210
 Red. masses --      1.0579                 1.0555                 1.0691
 Frc consts  --      8.5512                 8.7042                 9.6368
 IR Inten    --    792.2142               205.7529                86.6523

                    121                    122                    123
                      A                      A                      A
 Frequencies --   3914.1006              3926.0941              3927.2301
 Red. masses --      1.0689                 1.0706                 1.0730
 Frc consts  --      9.6483                 9.7229                 9.7503
 IR Inten    --     69.4230               135.4211               130.3721

 - Thermochemistry -
 -------------------
 Temperature   298.150 Kelvin.  Pressure   1.00000 Atm.
 Atom     1 has atomic number  6 and mass  12.00000

 Molecular mass:   310.13762 amu.
 Principal axes and moments of inertia in atomic units:
                           1         2         3
     Eigenvalues --  5399.374137812.95952**********
           X            0.99998   0.00405  -0.00566
           Y           -0.00410   0.99995  -0.00931
           Z            0.00563   0.00933   0.99994
 This molecule is an asymmetric top.
 Rotational symmetry number  1.
 Warning -- assumption of classical behavior for rotation
           may cause significant error
 Rotational temperatures (Kelvin)      0.01604     0.01109     0.00825
 Rotational constants (GHZ):           0.33425     0.23099     0.17187
    1 imaginary frequencies ignored.
 Zero-point vibrational energy     902299.0 (Joules/Mol)
                                  215.65464 (Kcal/Mol)
 Warning -- explicit consideration of  43 degrees of freedom as
           vibrations may cause significant error
 Vibrational temperatures:     27.84    37.51    43.15    52.15    58.97
          (Kelvin)             69.10    85.49    94.57   110.68   118.30
                              122.59   124.33   142.36   146.15   164.60
                              180.14   197.42   205.63   211.87   235.19
                              248.29   260.17   274.75   287.85   300.29
                              319.55   359.14   389.36   418.87   430.16
                              474.22   481.17   494.66   497.66   512.83
                              561.78   627.70   640.63   664.20   736.12
                              770.10   833.30   886.06   918.47   940.83
                              981.81  1027.90  1064.85  1104.00  1142.65
                             1152.65  1156.44  1162.75  1186.07  1196.23
                             1230.52  1272.23  1324.33  1336.14  1362.58
                             1397.66  1419.10  1430.18  1462.70  1501.60
                             1517.24  1529.19  1550.70  1557.65  1560.81
                             1608.70  1612.98  1701.81  1705.40  1722.27
                             1763.12  1773.16  1787.53  1820.59  1842.60
                             1880.18  1884.31  1885.83  1951.88  1985.61
                             2008.52  2051.85  2130.47  2137.65  2147.23
                             2148.24  2154.12  2156.75  2160.52  2356.76
                             2371.19  2384.31  2390.48  2532.11  2593.89
                             4416.66  4422.86  4467.24  4536.53  4553.10
                             4555.70  4569.10  4588.31  4646.41  4674.67
                             4689.62  4703.46  4704.57  4716.35  5212.38
                             5281.48  5329.23  5382.75  5627.66  5631.51
                             5648.77  5650.40

 Zero-point correction=                           0.343668 (Hartree/Particle)
 Thermal correction to Energy=                    0.372782
 Thermal correction to Enthalpy=                  0.373726
 Thermal correction to Gibbs Free Energy=         0.280685
 Sum of electronic and zero-point Energies=          -1143.332049
 Sum of electronic and thermal Energies=             -1143.302935
 Sum of electronic and thermal Enthalpies=           -1143.301990
 Sum of electronic and thermal Free Energies=        -1143.395031

                     E (Thermal)             CV                S
                      KCal/Mol        Cal/Mol-Kelvin    Cal/Mol-Kelvin
 Total                  233.924             99.309            195.820
 Electronic               0.000              0.000              0.000
 Translational            0.889              2.981             43.092
 Rotational               0.889              2.981             34.448
 Vibrational            232.147             93.347            118.280
 Vibration     1          0.593              1.986              6.700
 Vibration     2          0.593              1.985              6.108
 Vibration     3          0.594              1.984              5.830
 Vibration     4          0.594              1.982              5.454
 Vibration     5          0.594              1.981              5.211
 Vibration     6          0.595              1.978              4.897
 Vibration     7          0.597              1.974              4.476
 Vibration     8          0.597              1.971              4.277
 Vibration     9          0.599              1.965              3.968
 Vibration    10          0.600              1.961              3.837
 Vibration    11          0.601              1.959              3.767
 Vibration    12          0.601              1.959              3.740
 Vibration    13          0.604              1.950              3.475
 Vibration    14          0.604              1.948              3.424
 Vibration    15          0.607              1.937              3.193
 Vibration    16          0.610              1.928              3.018
 Vibration    17          0.614              1.916              2.842
 Vibration    18          0.616              1.910              2.764
 Vibration    19          0.617              1.906              2.707
 Vibration    20          0.623              1.887              2.509
 Vibration    21          0.626              1.876              2.407
 Vibration    22          0.630              1.866              2.320
 Vibration    23          0.634              1.852              2.219
 Vibration    24          0.638              1.840              2.132
 Vibration    25          0.642              1.827              2.055
 Vibration    26          0.648              1.807              1.942
 Vibration    27          0.662              1.763              1.733
 Vibration    28          0.674              1.727              1.592
 Vibration    29          0.687              1.690              1.467
 Vibration    30          0.692              1.676              1.423
 Vibration    31          0.712              1.616              1.262
 Vibration    32          0.716              1.607              1.239
 Vibration    33          0.723              1.588              1.194
 Vibration    34          0.724              1.584              1.185
 Vibration    35          0.732              1.562              1.138
 Vibration    36          0.758              1.491              0.998
 Vibration    37          0.797              1.391              0.838
 Vibration    38          0.805              1.371              0.810
 Vibration    39          0.819              1.335              0.761
 Vibration    40          0.867              1.224              0.630
 Vibration    41          0.890              1.172              0.576
 Vibration    42          0.936              1.076              0.487
 Vibration    43          0.975              0.998              0.423

 Normal termination of Gaussian 09 at Mon Feb 28 15:38:23 2022.
