 Gaussian 09, Revision D.01,
 Gaussian 09:  ES64L-G09RevD.01 24-Apr-2013

 ----------------------------------------------------------------------
 #n wB97XD/Def2TZVP scrf(smd,solvent=toluene) opt=(calcfc,ts,noeigentes
 t) int=(grid=ultrafine)
 ----------------------------------------------------------------------

 -----------------------------------------
 ts cycloaddition toluene with 4 h2o - opt
 -----------------------------------------
 Symbolic Z-matrix:
 Charge =  0 Multiplicity = 1

 SCF Done:  E(RwB97XD) =  -1143.67563598     A.U. after   17 cycles

  Exact polarizability:   0.000   0.000   0.000   0.000   0.000   0.000
 Approx polarizability: 220.619  27.745 245.574  28.137  41.696 228.785

 SCF Done:  E(RwB97XD) =  -1143.67570046     A.U. after   13 cycles
 SCF Done:  E(RwB97XD) =  -1143.67567254     A.U. after   13 cycles
 SCF Done:  E(RwB97XD) =  -1143.67543879     A.U. after   13 cycles
 SCF Done:  E(RwB97XD) =  -1143.67569092     A.U. after   13 cycles
 SCF Done:  E(RwB97XD) =  -1143.67552015     A.U. after   15 cycles
 SCF Done:  E(RwB97XD) =  -1143.67563036     A.U. after   13 cycles
 SCF Done:  E(RwB97XD) =  -1143.67551973     A.U. after   13 cycles
 SCF Done:  E(RwB97XD) =  -1143.67533413     A.U. after   14 cycles
 SCF Done:  E(RwB97XD) =  -1143.67561044     A.U. after   13 cycles
 SCF Done:  E(RwB97XD) =  -1143.67549849     A.U. after   13 cycles
 SCF Done:  E(RwB97XD) =  -1143.67565013     A.U. after   13 cycles
 SCF Done:  E(RwB97XD) =  -1143.67569947     A.U. after   14 cycles
 SCF Done:  E(RwB97XD) =  -1143.67571145     A.U. after   12 cycles
 SCF Done:  E(RwB97XD) =  -1143.67571525     A.U. after   10 cycles
 SCF Done:  E(RwB97XD) =  -1143.67571551     A.U. after   10 cycles
 SCF Done:  E(RwB97XD) =  -1143.67571601     A.U. after    8 cycles
 SCF Done:  E(RwB97XD) =  -1143.67571612     A.U. after    7 cycles
 SCF Done:  E(RwB97XD) =  -1143.67571614     A.U. after    8 cycles
 SCF Done:  E(RwB97XD) =  -1143.67571623     A.U. after    7 cycles
 Optimization completed.
    -- Stationary point found.

                         Standard orientation:
 ---------------------------------------------------------------------
 Center     Atomic      Atomic             Coordinates (Angstroms)
 Number     Number       Type             X           Y           Z
 ---------------------------------------------------------------------
      1          6           0       -0.505943   -1.070095   -1.190567
      2          6           0       -1.582933   -1.950824   -0.487279
      3          6           0        0.431929   -2.861698    0.124912
      4          6           0        0.764568   -1.853006   -0.936537
      5          1           0       -0.689422   -0.524028   -2.101342
      6          1           0        1.754814   -1.514708   -1.191313
      7          6           0       -0.899264   -2.506619    0.749882
      8          1           0       -1.436479   -3.376156    1.128436
      9          1           0       -0.796374   -1.765983    1.540087
     10          6           0       -1.125292   -2.701426   -1.630973
     11          1           0       -1.614763   -2.744040   -2.591487
     12          6           0        0.212176   -3.245334   -1.304860
     13          1           0        0.749782   -3.987413   -1.870167
     14          1           0       -2.589091   -1.556490   -0.456052
     15          1           0        1.240178   -3.305962    0.684013
     16          7           0        0.632492    0.242045    0.870713
     17          7           0       -0.182839    0.568823   -0.077715
     18          6           0        1.972796    0.414063    0.557133
     19          6           0       -1.517175    0.783847    0.391299
     20          8           0       -1.874242    0.745376    1.539901
     21          8           0        2.843077    0.070441    1.328729
     22          8           0       -2.278152    1.107885   -0.636577
     23          8           0        2.233399    1.008044   -0.616868
     24          6           0        3.609563    1.190848   -0.941138
     25          1           0        3.621678    1.687900   -1.908745
     26          1           0        4.107058    1.811741   -0.196354
     27          1           0        4.125545    0.233028   -1.013774
     28          6           0       -3.607993    1.540326   -0.332827
     29          1           0       -4.176090    0.739520    0.141274
     30          1           0       -3.569252    2.416236    0.313072
     31          1           0       -4.051178    1.802360   -1.289836
     32          8           0       -1.422408    4.026182    0.381197
     33          1           0       -0.894363    3.745484   -0.384578
     34          1           0       -0.954823    3.687085    1.146532
     35          8           0       -3.946937   -1.209589    1.811108
     36          1           0       -4.333193   -1.361343    2.674829
     37          1           0       -3.286063   -0.515374    1.938977
     38          8           0        0.176931    2.957023   -1.735457
     39          1           0        1.090807    3.245767   -1.700487
     40          1           0        0.191068    2.060108   -1.358569
     41          8           0        5.671583   -0.258069    1.344920
     42          1           0        4.710780   -0.131776    1.345953
     43          1           0        5.911197   -0.340858    2.268655
 ---------------------------------------------------------------------

 The electronic state is 1-A.
 Alpha  occ. eigenvalues --  -19.30725 -19.30111 -19.24913 -19.24281 -19.23743
 Alpha  occ. eigenvalues --  -19.23295 -19.21957 -19.21750 -14.50797 -14.45686
 Alpha  occ. eigenvalues --  -10.44538 -10.43036 -10.36085 -10.35102 -10.33655
 Alpha  occ. eigenvalues --  -10.33573 -10.33017 -10.33014 -10.32716 -10.31810
 Alpha  occ. eigenvalues --  -10.29559  -1.23819  -1.22348  -1.14439  -1.12459
 Alpha  occ. eigenvalues --   -1.11377  -1.10647  -1.10106  -1.08661  -1.08234
 Alpha  occ. eigenvalues --   -1.08176  -0.91860  -0.90120  -0.85674  -0.83205
 Alpha  occ. eigenvalues --   -0.80652  -0.79562  -0.69708  -0.68729  -0.67364
 Alpha  occ. eigenvalues --   -0.66970  -0.65718  -0.65549  -0.63740  -0.62312
 Alpha  occ. eigenvalues --   -0.62041  -0.60083  -0.59653  -0.59475  -0.59002
 Alpha  occ. eigenvalues --   -0.58104  -0.57341  -0.56521  -0.55540  -0.55007
 Alpha  occ. eigenvalues --   -0.53397  -0.51855  -0.51255  -0.50723  -0.50023
 Alpha  occ. eigenvalues --   -0.49329  -0.48565  -0.47833  -0.46939  -0.46135
 Alpha  occ. eigenvalues --   -0.45917  -0.45467  -0.45200  -0.45096  -0.44174
 Alpha  occ. eigenvalues --   -0.43671  -0.40628  -0.40395  -0.39873  -0.39526
 Alpha  occ. eigenvalues --   -0.39225  -0.39171  -0.38708  -0.37869  -0.37676
 Alpha  occ. eigenvalues --   -0.37463  -0.33430  -0.28076
 Alpha virt. eigenvalues --   -0.05225   0.07145   0.09392   0.10166   0.11476
 Alpha virt. eigenvalues --    0.11866   0.12268   0.14069   0.14260   0.14736
 Alpha virt. eigenvalues --    0.15541   0.15789   0.16031   0.16487   0.16848

 Mulliken charges:
               1
     1  C   -0.105125
     2  C   -0.076599
     3  C   -0.098263
     4  C   -0.167713
     5  H    0.183821
     6  H    0.169667
     7  C   -0.148021
     8  H    0.125830
     9  H    0.156884
    10  C   -0.081924
    11  H    0.183524
    12  C   -0.085551
    13  H    0.164295
    14  H    0.182199
    15  H    0.152460
    16  N   -0.296144
    17  N   -0.064107
    18  C    0.431283
    19  C    0.328906
    20  O   -0.390608
    21  O   -0.456027
    22  O   -0.244680
    23  O   -0.310614
    24  C   -0.242439
    25  H    0.142519
    26  H    0.157511
    27  H    0.152373
    28  C   -0.213445
    29  H    0.139655
    30  H    0.166346
    31  H    0.145417
    32  O   -0.677390
    33  H    0.355399
    34  H    0.333645
    35  O   -0.678323
    36  H    0.337196
    37  H    0.339318
    38  O   -0.679204
    39  H    0.340398
    40  H    0.350330
    41  O   -0.692183
    42  H    0.341177
    43  H    0.328208
 Sum of Mulliken charges =   0.00000

 Dipole moment (field-independent basis, Debye):
    X=             -1.9410    Y=             -6.6129    Z=             -4.1229  Tot=              8.0309
 Quadrupole moment (field-independent basis, Debye-Ang):
   XX=           -136.3785   YY=           -125.1980   ZZ=           -115.3740
   XY=             12.9671   XZ=             -4.4359   YZ=              6.4422

 Normal termination of Gaussian 09 at Sat Feb 26 07:06:34 2022.
