 Gaussian 09, Revision D.01,
 Gaussian 09:  ES64L-G09RevD.01 24-Apr-2013

 -------------------------------------------------
 #n wB97XD/Def2TZVP scrf(smd,solvent=toluene) freq
 -------------------------------------------------

 --------------------------------
 diene diels-alder toluene - freq
 --------------------------------
 Symbolic Z-matrix:
 Charge =  0 Multiplicity = 1

                         Standard orientation:
 ---------------------------------------------------------------------
 Center     Atomic      Atomic             Coordinates (Angstroms)
 Number     Number       Type             X           Y           Z
 ---------------------------------------------------------------------
      1          6           0       -3.330350    0.428441   -0.428730
      2          1           0       -3.556160    1.215571   -1.144080
      3          6           0       -1.914370    0.076271   -0.293860
      4          1           0       -1.201380    0.883671   -0.430800
      5          6           0       -4.327290   -0.109579    0.269140
      6          1           0       -4.092750   -0.854849    1.025830
      7          6           0       -5.768470    0.241631    0.111900
      8          1           0       -6.187040    0.609871    1.052760
      9          1           0       -5.916080    1.006401   -0.652110
     10          1           0       -6.353800   -0.639269   -0.167900
     11          6           0       -1.457080   -1.145999   -0.043530
     12          1           0       -2.145810   -1.981779    0.038870
     13          6           0       -0.025090   -1.525730    0.122680
     14          1           0        0.273270   -2.209900   -0.676660
     15          1           0        0.116740   -2.042140    1.077460
     16          6           0        2.109810   -0.406050    0.002520
     17          6           0        2.783790   -1.737100   -0.109240
     18          1           0        2.533230   -2.197360   -1.067450
     19          1           0        3.860030   -1.597290   -0.054460
     20          1           0        2.456790   -2.413880    0.680720
     21          8           0        0.787260   -0.352940    0.098330
     22          8           0        2.708970    0.648020    0.000430
     23          8           0        5.569480    0.366120    0.103650
     24          1           0        4.630030    0.598190    0.082430
     25          1           0        5.976900    0.902480   -0.577750
     26          8           0        0.861310    2.949220    0.076870
     27          1           0        0.265220    2.681090    0.777950
     28          1           0        1.498930    2.224520    0.015710
 ---------------------------------------------------------------------

 SCF Done:  E(RwB97XD) =  -615.431888033     A.U. after   13 cycles

 The electronic state is 1-A.
 Alpha  occ. eigenvalues --  -19.31517 -19.25571 -19.22441 -19.22007 -10.44025
 Alpha  occ. eigenvalues --  -10.36225 -10.30250 -10.29435 -10.28957 -10.28762
 Alpha  occ. eigenvalues --  -10.28238 -10.27588  -1.23500  -1.14561  -1.08918
 Alpha  occ. eigenvalues --   -1.08412  -0.92698  -0.88929  -0.86371  -0.83083
 Alpha  occ. eigenvalues --   -0.76583  -0.71013  -0.67191  -0.62519  -0.61412
 Alpha  occ. eigenvalues --   -0.60887  -0.60566  -0.59055  -0.58303  -0.55983
 Alpha  occ. eigenvalues --   -0.53719  -0.53473  -0.50672  -0.50086  -0.49673
 Alpha  occ. eigenvalues --   -0.48686  -0.47797  -0.46145  -0.45720  -0.44724
 Alpha  occ. eigenvalues --   -0.43951  -0.42832  -0.40929  -0.38809  -0.38439
 Alpha  occ. eigenvalues --   -0.38087  -0.37622  -0.30779
 Alpha virt. eigenvalues --    0.04166   0.06181   0.10098   0.11989   0.12674
 Alpha virt. eigenvalues --    0.13415   0.13901   0.14603   0.15814   0.16611
 Alpha virt. eigenvalues --    0.17095   0.18249   0.18714   0.20095   0.20348

 Mulliken charges:
               1
     1  C   -0.203768
     2  H    0.138416
     3  C   -0.116451
     4  H    0.136713
     5  C   -0.118075
     6  H    0.133614
     7  C   -0.336635
     8  H    0.131924
     9  H    0.125699
    10  H    0.128996
    11  C   -0.215206
    12  H    0.151815
    13  C   -0.024913
    14  H    0.138273
    15  H    0.142879
    16  C    0.462352
    17  C   -0.417168
    18  H    0.173730
    19  H    0.173662
    20  H    0.158816
    21  O   -0.245831
    22  O   -0.499678
    23  O   -0.693433
    24  H    0.344753
    25  H    0.333784
    26  O   -0.676688
    27  H    0.328735
    28  H    0.343684
 Sum of Mulliken charges =   0.00000

 Dipole moment (field-independent basis, Debye):
    X=             -3.6534    Y=             -6.1147    Z=             -0.2512  Tot=              7.1275
 Quadrupole moment (field-independent basis, Debye-Ang):
   XX=            -81.3472   YY=            -77.2148   ZZ=            -72.5755
   XY=             -4.6338   XZ=             -9.4432   YZ=             -0.4505

  Exact polarizability: 184.893  -6.665 130.719  -7.618  -7.499  96.242
 Approx polarizability: 141.758   0.001 127.258  -7.464  -8.061 100.556

                      1                      2                      3
                      A                      A                      A
 Frequencies --     16.5779                32.4261                43.7024
 Red. masses --      6.0479                 2.4032                 3.8952
 Frc consts  --      0.0010                 0.0015                 0.0044
 IR Inten    --      2.2154                19.2211                13.0377

                      4                      5                      6
                      A                      A                      A
 Frequencies --     50.0521                57.6843                66.7664
 Red. masses --      2.4868                 3.5473                 2.7278
 Frc consts  --      0.0037                 0.0070                 0.0072
 IR Inten    --     21.0269                55.9287                24.7179

                      7                      8                      9
                      A                      A                      A
 Frequencies --     79.3514                88.4683               125.4755
 Red. masses --      4.1257                 3.3329                 4.5873
 Frc consts  --      0.0153                 0.0154                 0.0426
 IR Inten    --      7.3208                21.1488                 0.1661

                     10                     11                     12
                      A                      A                      A
 Frequencies --    138.4139               149.1199               164.7975
 Red. masses --      5.0067                 2.9942                 1.8230
 Frc consts  --      0.0565                 0.0392                 0.0292
 IR Inten    --      3.0613                 2.2096                14.2950

                     13                     14                     15
                      A                      A                      A
 Frequencies --    172.0570               193.5412               201.4054
 Red. masses --      1.1703                 4.1209                 1.3600
 Frc consts  --      0.0204                 0.0909                 0.0325
 IR Inten    --      3.2023                 3.5001                97.3799

                     16                     17                     18
                      A                      A                      A
 Frequencies --    227.9092               240.4052               258.9999
 Red. masses --      1.1842                 1.5942                 2.8544
 Frc consts  --      0.0362                 0.0543                 0.1128
 IR Inten    --     26.3179                13.6094                 8.0178

                     19                     20                     21
                      A                      A                      A
 Frequencies --    319.1463               329.0413               345.4810
 Red. masses --      1.0773                 1.0882                 2.5745
 Frc consts  --      0.0646                 0.0694                 0.1810
 IR Inten    --     21.0522               173.5645                 2.8761

                     22                     23                     24
                      A                      A                      A
 Frequencies --    376.6957               476.5906               543.0938
 Red. masses --      2.9841                 3.8414                 2.6422
 Frc consts  --      0.2495                 0.5141                 0.4592
 IR Inten    --      8.5465                 8.4246                12.3578

                     25                     26                     27
                      A                      A                      A
 Frequencies --    556.3337               590.9783               605.9249
 Red. masses --      1.3513                 1.4145                 1.5536
 Frc consts  --      0.2464                 0.2911                 0.3361
 IR Inten    --     34.2303               141.1598               184.2830

                     28                     29                     30
                      A                      A                      A
 Frequencies --    626.4681               716.3969               799.6845
 Red. masses --      3.4121                 3.0476                 1.6497
 Frc consts  --      0.7890                 0.9215                 0.6216
 IR Inten    --     40.7260                 8.8396                 2.8177

                     31                     32                     33
                      A                      A                      A
 Frequencies --    851.3090               875.7079               932.2551
 Red. masses --      2.1655                 2.7009                 1.6882
 Frc consts  --      0.9247                 1.2203                 0.8645
 IR Inten    --      3.8285                 2.3099                10.9829

                     34                     35                     36
                      A                      A                      A
 Frequencies --   1003.2534              1017.1594              1030.3257
 Red. masses --      1.8668                 1.2926                 1.1224
 Frc consts  --      1.1071                 0.7880                 0.7020
 IR Inten    --      9.3944                22.2432                74.9279

                     37                     38                     39
                      A                      A                      A
 Frequencies --   1043.8965              1064.1607              1077.7757
 Red. masses --      1.6243                 1.6849                 1.8646
 Frc consts  --      1.0429                 1.1242                 1.2762
 IR Inten    --     27.7754                13.3026                13.3117

                     40                     41                     42
                      A                      A                      A
 Frequencies --   1083.4927              1100.2387              1136.8445
 Red. masses --      1.5726                 1.8886                 2.7685
 Frc consts  --      1.0878                 1.3470                 2.1081
 IR Inten    --      2.5592                 4.8297                10.4226

                     43                     44                     45
                      A                      A                      A
 Frequencies --   1152.1425              1304.3952              1311.9144
 Red. masses --      4.0229                 1.1953                 1.4613
 Frc consts  --      3.1463                 1.1982                 1.4818
 IR Inten    --     78.1708                99.3684                 4.4927

                     46                     47                     48
                      A                      A                      A
 Frequencies --   1324.6060              1338.4440              1349.4527
 Red. masses --      1.2789                 1.5027                 1.9963
 Frc consts  --      1.3220                 1.5861                 2.1419
 IR Inten    --     12.6451               146.5727               379.3900

                     49                     50                     51
                      A                      A                      A
 Frequencies --   1356.3870              1416.7599              1420.5163
 Red. masses --      1.3443                 1.2874                 1.4746
 Frc consts  --      1.4572                 1.5225                 1.7531
 IR Inten    --      0.6730                 3.5840               193.5883

                     52                     53                     54
                      A                      A                      A
 Frequencies --   1444.6104              1471.7966              1478.4827
 Red. masses --      1.3315                 1.0938                 1.0442
 Frc consts  --      1.6372                 1.3959                 1.3448
 IR Inten    --      0.5689                28.5356                11.6682

                     55                     56                     57
                      A                      A                      A
 Frequencies --   1482.4624              1486.3171              1508.5537
 Red. masses --      1.0661                 1.0551                 1.0993
 Frc consts  --      1.3805                 1.3733                 1.4740
 IR Inten    --     10.4456                18.9586                 2.5004

                     58                     59                     60
                      A                      A                      A
 Frequencies --   1648.1503              1659.4599              1744.8765
 Red. masses --      1.0802                 1.0801                 6.4401
 Frc consts  --      1.7288                 1.7524                11.5525
 IR Inten    --     36.1725               143.5328                15.1413

                     61                     62                     63
                      A                      A                      A
 Frequencies --   1754.0728              1787.8439              3040.2055
 Red. masses --      5.6692                10.2484                 1.0371
 Frc consts  --     10.2770                19.3004                 5.6480
 IR Inten    --      0.4272               589.5806                34.5867

                     64                     65                     66
                      A                      A                      A
 Frequencies --   3052.9316              3077.2583              3096.8954
 Red. masses --      1.0581                 1.0388                 1.0998
 Frc consts  --      5.8107                 5.7958                 6.2146
 IR Inten    --     28.6553                 4.2729                17.4164

                     67                     68                     69
                      A                      A                      A
 Frequencies --   3098.0763              3127.6334              3149.6900
 Red. masses --      1.1038                 1.1009                 1.0997
 Frc consts  --      6.2418                 6.3451                 6.4275
 IR Inten    --     12.5827                13.5407                 1.5535

                     70                     71                     72
                      A                      A                      A
 Frequencies --   3158.1928              3163.6629              3182.6600
 Red. masses --      1.0922                 1.0861                 1.0913
 Frc consts  --      6.4184                 6.4045                 6.5131
 IR Inten    --      2.8741                41.5985                 5.1636

                     73                     74                     75
                      A                      A                      A
 Frequencies --   3189.4281              3190.4168              3719.0257
 Red. masses --      1.0874                 1.1046                 1.0567
 Frc consts  --      6.5175                 6.6242                 8.6110
 IR Inten    --      4.2579                 0.9174               565.8300

                     76                     77                     78
                      A                      A                      A
 Frequencies --   3746.7362              3918.5279              3923.0746
 Red. masses --      1.0553                 1.0719                 1.0719
 Frc consts  --      8.7282                 9.6974                 9.7198
 IR Inten    --    256.3978                86.5540               101.5087

 - Thermochemistry -
 -------------------
 Temperature   298.150 Kelvin.  Pressure   1.00000 Atm.
 Atom     1 has atomic number  6 and mass  12.00000

 Molecular mass:   176.10486 amu.
 Principal axes and moments of inertia in atomic units:
                           1         2         3
     Eigenvalues --  1045.694406639.429027589.73321
           X            0.99998  -0.00596  -0.00292
           Y            0.00595   0.99998  -0.00324
           Z            0.00294   0.00323   0.99999
 This molecule is an asymmetric top.
 Rotational symmetry number  1.
 Warning -- assumption of classical behavior for rotation
           may cause significant error
 Rotational temperatures (Kelvin)      0.08283     0.01305     0.01141
 Rotational constants (GHZ):           1.72588     0.27182     0.23779
 Zero-point vibrational energy     616585.6 (Joules/Mol)
                                  147.36750 (Kcal/Mol)
 Warning -- explicit consideration of  27 degrees of freedom as
           vibrations may cause significant error
 Vibrational temperatures:     23.85    46.65    62.88    72.01    82.99
          (Kelvin)             96.06   114.17   127.29   180.53   199.15
                              214.55   237.11   247.55   278.46   289.78
                              327.91   345.89   372.64   459.18   473.42
                              497.07   541.98   685.71   781.39   800.44
                              850.28   871.79   901.35  1030.73  1150.57
                             1224.84  1259.95  1341.31  1443.46  1463.46
                             1482.41  1501.93  1531.09  1550.68  1558.90
                             1583.00  1635.66  1657.67  1876.73  1887.55
                             1905.81  1925.72  1941.56  1951.54  2038.40
                             2043.80  2078.47  2117.58  2127.20  2132.93
                             2138.48  2170.47  2371.32  2387.59  2510.48
                             2523.72  2572.31  4374.17  4392.48  4427.48
                             4455.74  4457.44  4499.96  4531.70  4543.93
                             4551.80  4579.13  4588.87  4590.29  5350.84
                             5390.71  5637.88  5644.42

 Zero-point correction=                           0.234845 (Hartree/Particle)
 Thermal correction to Energy=                    0.253458
 Thermal correction to Enthalpy=                  0.254402
 Thermal correction to Gibbs Free Energy=         0.185184
 Sum of electronic and zero-point Energies=           -615.197043
 Sum of electronic and thermal Energies=              -615.178430
 Sum of electronic and thermal Enthalpies=            -615.177486
 Sum of electronic and thermal Free Energies=         -615.246704

                     E (Thermal)             CV                S
                      KCal/Mol        Cal/Mol-Kelvin    Cal/Mol-Kelvin
 Total                  159.047             61.018            145.681
 Electronic               0.000              0.000              0.000
 Translational            0.889              2.981             41.405
 Rotational               0.889              2.981             32.333
 Vibrational            157.270             55.056             71.944
 Vibration     1          0.593              1.986              7.007
 Vibration     2          0.594              1.983              5.675
 Vibration     3          0.595              1.980              5.084
 Vibration     4          0.595              1.978              4.815
 Vibration     5          0.596              1.974              4.535
 Vibration     6          0.598              1.970              4.246
 Vibration     7          0.600              1.963              3.907
 Vibration     8          0.601              1.957              3.694
 Vibration     9          0.610              1.928              3.014
 Vibration    10          0.614              1.915              2.826
 Vibration    11          0.618              1.904              2.683
 Vibration    12          0.623              1.886              2.494
 Vibration    13          0.626              1.877              2.413
 Vibration    14          0.635              1.849              2.194
 Vibration    15          0.638              1.838              2.120
 Vibration    16          0.651              1.798              1.895
 Vibration    17          0.657              1.779              1.800
 Vibration    18          0.668              1.748              1.669
 Vibration    19          0.705              1.637              1.314
 Vibration    20          0.712              1.617              1.265
 Vibration    21          0.724              1.584              1.187
 Vibration    22          0.747              1.520              1.052
 Vibration    23          0.833              1.302              0.719
 Vibration    24          0.898              1.155              0.559
 Vibration    25          0.912              1.126              0.531
 Vibration    26          0.948              1.051              0.465
 Vibration    27          0.965              1.019              0.440

 Normal termination of Gaussian 09 at Thu Feb 24 23:48:44 2022.
