 Gaussian 09, Revision D.01,
 Gaussian 09:  ES64L-G09RevD.01 24-Apr-2013

 ----------------------------------------------------------------------
 #n wB97XD/Def2TZVP scrf(smd,solvent=toluene) freq int=(grid=ultrafine)
 ----------------------------------------------------------------------

 --------------------------------------
 dieneophile diels-alder toluene - freq
 --------------------------------------
 Symbolic Z-matrix:
 Charge =  0 Multiplicity = 1

                         Standard orientation:
 ---------------------------------------------------------------------
 Center     Atomic      Atomic             Coordinates (Angstroms)
 Number     Number       Type             X           Y           Z
 ---------------------------------------------------------------------
      1          6           0       -1.131211    0.320822   -0.023909
      2          6           0       -0.658992   -1.098848   -0.043329
      3          6           0        0.665368   -1.094139   -0.032579
      4          6           0        1.130419    0.328181   -0.008159
      5          1           0       -1.349972   -1.928508   -0.059879
      6          1           0        1.362648   -1.918749   -0.038859
      7          6           0       -0.021120    2.561492    0.022291
      8          1           0        1.009211    2.909741    0.016471
      9          1           0       -0.540949    2.951802   -0.852129
     10          1           0       -0.518849    2.917992    0.923891
     11          7           0       -0.004010    1.117412   -0.006639
     12          8           0        2.265719    0.738740    0.008241
     13          8           0       -2.266781    0.732023   -0.022179
     14          8           0        3.952868   -1.608531    0.112701
     15          1           0        4.544948   -1.631881   -0.640399
     16          1           0        3.552279   -0.728150    0.095761
     17          8           0       -3.937982   -1.626456   -0.043679
     18          1           0       -3.545601   -0.742156   -0.054969
     19          1           0       -4.503032   -1.643226    0.730061
 ---------------------------------------------------------------------

 SCF Done:  E(RwB97XD) =  -551.680965035     A.U. after   13 cycles

 The electronic state is 1-A.
 Alpha  occ. eigenvalues --  -19.26905 -19.26871 -19.23149 -19.23132 -14.49846
 Alpha  occ. eigenvalues --  -10.42844 -10.42718 -10.32777 -10.32775 -10.32679
 Alpha  occ. eigenvalues --   -1.20246  -1.18293  -1.09687  -1.09607  -1.08639
 Alpha  occ. eigenvalues --   -0.94614  -0.82368  -0.78673  -0.72050  -0.66454
 Alpha  occ. eigenvalues --   -0.61380  -0.60781  -0.60719  -0.59954  -0.57121
 Alpha  occ. eigenvalues --   -0.55216  -0.54542  -0.52781  -0.51510  -0.50959
 Alpha  occ. eigenvalues --   -0.49532  -0.46455  -0.46272  -0.40507  -0.40023
 Alpha  occ. eigenvalues --   -0.39215  -0.38895  -0.37378  -0.36964
 Alpha virt. eigenvalues --   -0.03751   0.11524   0.11554   0.12624   0.12703
 Alpha virt. eigenvalues --    0.13056   0.16370   0.17387   0.18655   0.20376
 Alpha virt. eigenvalues --    0.21107   0.21291   0.21382   0.23117   0.24101

 Mulliken charges:
               1
     1  C    0.362567
     2  C   -0.201277
     3  C   -0.186062
     4  C    0.355928
     5  H    0.210250
     6  H    0.208293
     7  C   -0.287040
     8  H    0.167835
     9  H    0.155359
    10  H    0.154281
    11  N   -0.087985
    12  O   -0.418484
    13  O   -0.411026
    14  O   -0.686508
    15  H    0.336357
    16  H    0.339232
    17  O   -0.687068
    18  H    0.339044
    19  H    0.336306
 Sum of Mulliken charges =   0.00000

 Dipole moment (field-independent basis, Debye):
    X=              0.0684    Y=              2.1992    Z=             -0.0481  Tot=              2.2008
 Quadrupole moment (field-independent basis, Debye-Ang):
   XX=            -70.8177   YY=            -57.8550   ZZ=            -57.1771
   XY=             -0.0619   XZ=            -13.7696   YZ=              0.2242

  Exact polarizability: 128.284  -0.725  92.369  -2.027   0.440  58.215
 Approx polarizability: 125.436  -0.543  83.807  -1.806   0.262  62.577

                      1                      2                      3
                      A                      A                      A
 Frequencies --     17.1141                39.7535                48.2144
 Red. masses --      5.5141                 7.0298                 7.4573
 Frc consts  --      0.0010                 0.0065                 0.0102
 IR Inten    --      2.3688                 2.1468                 0.4054

                      4                      5                      6
                      A                      A                      A
 Frequencies --     73.9704                80.1441               133.8484
 Red. masses --      7.1253                 1.0380                 6.0960
 Frc consts  --      0.0230                 0.0039                 0.0643
 IR Inten    --     37.0072                 0.7411                 0.7833

                      7                      8                      9
                      A                      A                      A
 Frequencies --    141.9830               144.4886               163.8964
 Red. masses --      5.5292                 4.7651                 1.1158
 Frc consts  --      0.0657                 0.0586                 0.0177
 IR Inten    --      4.9619                 2.6921               168.8842

                     10                     11                     12
                      A                      A                      A
 Frequencies --    167.3132               183.3686               287.0335
 Red. masses --      1.0987                 3.6885                 3.4470
 Frc consts  --      0.0181                 0.0731                 0.1673
 IR Inten    --     97.2489                23.7797                31.4704

                     13                     14                     15
                      A                      A                      A
 Frequencies --    296.3233               325.7457               330.3153
 Red. masses --      2.8480                 1.1271                 1.1424
 Frc consts  --      0.1473                 0.0705                 0.0734
 IR Inten    --     17.0960               110.1097               115.4480

                     16                     17                     18
                      A                      A                      A
 Frequencies --    410.0869               575.4280               589.5773
 Red. masses --      7.8626                 1.3672                 1.1890
 Frc consts  --      0.7791                 0.2667                 0.2435
 IR Inten    --     36.0753               371.7721                 0.2091

                     19                     20                     21
                      A                      A                      A
 Frequencies --    598.2344               628.8358               657.4717
 Red. masses --      2.0044                 5.7095                 2.1110
 Frc consts  --      0.4226                 1.3302                 0.5377
 IR Inten    --    178.1361                 1.5466                 1.7605

                     22                     23                     24
                      A                      A                      A
 Frequencies --    717.5873               756.9477               799.7310
 Red. masses --      7.0059                 5.6105                 7.5131
 Frc consts  --      2.1255                 1.8940                 2.8311
 IR Inten    --     38.9492                 0.1815                 0.0288

                     25                     26                     27
                      A                      A                      A
 Frequencies --    878.0570               975.4540              1015.9374
 Red. masses --      2.0664                 2.0896                 1.3037
 Frc consts  --      0.9386                 1.1715                 0.7928
 IR Inten    --     90.6757                41.3592                 0.0679

                     28                     29                     30
                      A                      A                      A
 Frequencies --   1074.6935              1143.9667              1162.8283
 Red. masses --      1.5487                 2.4893                 1.3067
 Frc consts  --      1.0538                 1.9193                 1.0410
 IR Inten    --     17.4370                37.6031                 0.6541

                     31                     32                     33
                      A                      A                      A
 Frequencies --   1170.1844              1305.9674              1341.4596
 Red. masses --      2.4846                 3.3389                 1.7376
 Frc consts  --      2.0045                 3.3552                 1.8423
 IR Inten    --      1.8801                69.3471                 5.4181

                     34                     35                     36
                      A                      A                      A
 Frequencies --   1447.1640              1487.3722              1494.6383
 Red. masses --      1.4962                 1.0602                 1.7996
 Frc consts  --      1.8462                 1.3819                 2.3686
 IR Inten    --     51.0660                23.7865               179.5830

                     37                     38                     39
                      A                      A                      A
 Frequencies --   1515.5489              1644.8110              1645.8176
 Red. masses --      1.4903                 1.0800                 1.0793
 Frc consts  --      2.0168                 1.7214                 1.7225
 IR Inten    --     82.5482                87.8144                79.5578

                     40                     41                     42
                      A                      A                      A
 Frequencies --   1687.6905              1786.2554              1865.2445
 Red. masses --      6.7152                11.7657                11.4773
 Frc consts  --     11.2692                22.1185                23.5268
 IR Inten    --      4.5929              1322.6485                 3.4438

                     43                     44                     45
                      A                      A                      A
 Frequencies --   3076.6045              3151.4664              3182.0602
 Red. masses --      1.0337                 1.1066                 1.1040
 Frc consts  --      5.7649                 6.4754                 6.5862
 IR Inten    --     27.3395                10.2874                 0.6882

                     46                     47                     48
                      A                      A                      A
 Frequencies --   3251.6840              3270.3667              3728.8080
 Red. masses --      1.0915                 1.1116                 1.0563
 Frc consts  --      6.7996                 7.0045                 8.6528
 IR Inten    --     14.5645                 8.0959               464.6079

                     49                     50                     51
                      A                      A                      A
 Frequencies --   3733.1071              3925.8023              3926.2128
 Red. masses --      1.0558                 1.0722                 1.0724
 Frc consts  --      8.6692                 9.7359                 9.7396
 IR Inten    --    355.4002               201.1428                47.3975

 - Thermochemistry -
 -------------------
 Temperature   298.150 Kelvin.  Pressure   1.00000 Atm.
 Atom     1 has atomic number  6 and mass  12.00000

 Molecular mass:   147.05316 amu.
 Principal axes and moments of inertia in atomic units:
                           1         2         3
     Eigenvalues --   968.685302779.277983727.88228
           X            0.99997  -0.00030  -0.00723
           Y            0.00030   1.00000   0.00088
           Z            0.00723  -0.00088   0.99997
 This molecule is an asymmetric top.
 Rotational symmetry number  1.
 Warning -- assumption of classical behavior for rotation
           may cause significant error
 Rotational temperatures (Kelvin)      0.08941     0.03116     0.02323
 Rotational constants (GHZ):           1.86308     0.64936     0.48412
 Zero-point vibrational energy     383143.6 (Joules/Mol)
                                   91.57353 (Kcal/Mol)
 Warning -- explicit consideration of  19 degrees of freedom as
           vibrations may cause significant error
 Vibrational temperatures:     24.62    57.20    69.37   106.43   115.31
          (Kelvin)            192.58   204.28   207.89   235.81   240.73
                              263.83   412.98   426.34   468.67   475.25
                              590.02   827.91   848.27   860.72   904.75
                              945.95  1032.45  1089.08  1150.63  1263.33
                             1403.46  1461.71  1546.24  1645.91  1673.05
                             1683.63  1878.99  1930.06  2082.14  2139.99
                             2150.45  2180.53  2366.51  2367.96  2428.21
                             2570.02  2683.67  4426.54  4534.25  4578.27
                             4678.44  4705.32  5364.92  5371.10  5648.35
                             5648.94

 Zero-point correction=                           0.145932 (Hartree/Particle)
 Thermal correction to Energy=                    0.159985
 Thermal correction to Enthalpy=                  0.160929
 Thermal correction to Gibbs Free Energy=         0.102840
 Sum of electronic and zero-point Energies=           -551.535033
 Sum of electronic and thermal Energies=              -551.520980
 Sum of electronic and thermal Enthalpies=            -551.520036
 Sum of electronic and thermal Free Energies=         -551.578125

                     E (Thermal)             CV                S
                      KCal/Mol        Cal/Mol-Kelvin    Cal/Mol-Kelvin
 Total                  100.392             45.565            122.258
 Electronic               0.000              0.000              0.000
 Translational            0.889              2.981             40.868
 Rotational               0.889              2.981             30.685
 Vibrational             98.615             39.603             50.705
 Vibration     1          0.593              1.986              6.944
 Vibration     2          0.594              1.981              5.271
 Vibration     3          0.595              1.978              4.889
 Vibration     4          0.599              1.966              4.045
 Vibration     5          0.600              1.963              3.887
 Vibration     6          0.613              1.920              2.890
 Vibration     7          0.615              1.911              2.777
 Vibration     8          0.616              1.909              2.744
 Vibration     9          0.623              1.887              2.504
 Vibration    10          0.624              1.883              2.465
 Vibration    11          0.631              1.862              2.294
 Vibration    12          0.684              1.698              1.491
 Vibration    13          0.690              1.681              1.438
 Vibration    14          0.710              1.624              1.281
 Vibration    15          0.713              1.615              1.259
 Vibration    16          0.774              1.448              0.926
 Vibration    17          0.932              1.084              0.494
 Vibration    18          0.947              1.054              0.468
 Vibration    19          0.956              1.036              0.453

 Normal termination of Gaussian 09 at Thu Mar  3 19:19:13 2022.
