 Gaussian 09, Revision D.01,
 Gaussian 09:  ES64L-G09RevD.01 24-Apr-2013

 ------------------------------------------------
 #n wB97XD/Def2TZVP scrf(smd,solvent=toluene) opt
 ------------------------------------------------

 -------------------------------------
 diene diels-alder toluene 2 h2o - opt
 -------------------------------------
 Symbolic Z-matrix:
 Charge =  0 Multiplicity = 1

 SCF Done:  E(RwB97XD) =  -615.431360491     A.U. after   13 cycles
 SCF Done:  E(RwB97XD) =  -615.431428274     A.U. after   10 cycles
 SCF Done:  E(RwB97XD) =  -615.431514549     A.U. after   11 cycles
 SCF Done:  E(RwB97XD) =  -615.431534398     A.U. after   10 cycles
 SCF Done:  E(RwB97XD) =  -615.431549550     A.U. after    9 cycles
 SCF Done:  E(RwB97XD) =  -615.431560325     A.U. after   10 cycles
 SCF Done:  E(RwB97XD) =  -615.431568384     A.U. after   10 cycles
 SCF Done:  E(RwB97XD) =  -615.431594741     A.U. after   10 cycles
 SCF Done:  E(RwB97XD) =  -615.431502084     A.U. after   13 cycles
 SCF Done:  E(RwB97XD) =  -615.431623763     A.U. after   10 cycles
 SCF Done:  E(RwB97XD) =  -615.431861191     A.U. after   10 cycles
 SCF Done:  E(RwB97XD) =  -615.431872332     A.U. after   10 cycles
 SCF Done:  E(RwB97XD) =  -615.431881732     A.U. after   10 cycles
 SCF Done:  E(RwB97XD) =  -615.431885545     A.U. after    8 cycles
 SCF Done:  E(RwB97XD) =  -615.431887041     A.U. after    9 cycles
 SCF Done:  E(RwB97XD) =  -615.431887992     A.U. after    8 cycles
 SCF Done:  E(RwB97XD) =  -615.431888230     A.U. after    8 cycles
 SCF Done:  E(RwB97XD) =  -615.431888155     A.U. after    8 cycles
 SCF Done:  E(RwB97XD) =  -615.431888038     A.U. after    7 cycles
 SCF Done:  E(RwB97XD) =  -615.431888033     A.U. after    6 cycles
 Optimization completed.
    -- Stationary point found.

                         Standard orientation:
 ---------------------------------------------------------------------
 Center     Atomic      Atomic             Coordinates (Angstroms)
 Number     Number       Type             X           Y           Z
 ---------------------------------------------------------------------
      1          6           0       -3.330347    0.428438   -0.428725
      2          1           0       -3.556164    1.215572   -1.144078
      3          6           0       -1.914370    0.076271   -0.293861
      4          1           0       -1.201376    0.883672   -0.430802
      5          6           0       -4.327286   -0.109581    0.269135
      6          1           0       -4.092748   -0.854847    1.025829
      7          6           0       -5.768473    0.241632    0.111896
      8          1           0       -6.187042    0.609875    1.052764
      9          1           0       -5.916079    1.006399   -0.652106
     10          1           0       -6.353798   -0.639269   -0.167897
     11          6           0       -1.457077   -1.145997   -0.043526
     12          1           0       -2.145813   -1.981784    0.038870
     13          6           0       -0.025087   -1.525726    0.122682
     14          1           0        0.273266   -2.209901   -0.676660
     15          1           0        0.116740   -2.042137    1.077459
     16          6           0        2.109807   -0.406054    0.002521
     17          6           0        2.783793   -1.737097   -0.109243
     18          1           0        2.533230   -2.197357   -1.067448
     19          1           0        3.860034   -1.597295   -0.054464
     20          1           0        2.456793   -2.413884    0.680723
     21          8           0        0.787256   -0.352943    0.098326
     22          8           0        2.708967    0.648024    0.000428
     23          8           0        5.569484    0.366122    0.103648
     24          1           0        4.630031    0.598192    0.082427
     25          1           0        5.976896    0.902483   -0.577749
     26          8           0        0.861308    2.949216    0.076873
     27          1           0        0.265222    2.681089    0.777948
     28          1           0        1.498929    2.224523    0.015710
 ---------------------------------------------------------------------

 The electronic state is 1-A.
 Alpha  occ. eigenvalues --  -19.31517 -19.25571 -19.22441 -19.22007 -10.44025
 Alpha  occ. eigenvalues --  -10.36225 -10.30250 -10.29435 -10.28957 -10.28762
 Alpha  occ. eigenvalues --  -10.28238 -10.27588  -1.23500  -1.14561  -1.08918
 Alpha  occ. eigenvalues --   -1.08412  -0.92698  -0.88929  -0.86371  -0.83083
 Alpha  occ. eigenvalues --   -0.76583  -0.71013  -0.67191  -0.62519  -0.61412
 Alpha  occ. eigenvalues --   -0.60887  -0.60566  -0.59055  -0.58304  -0.55983
 Alpha  occ. eigenvalues --   -0.53719  -0.53473  -0.50672  -0.50086  -0.49673
 Alpha  occ. eigenvalues --   -0.48686  -0.47797  -0.46146  -0.45720  -0.44724
 Alpha  occ. eigenvalues --   -0.43951  -0.42831  -0.40929  -0.38809  -0.38439
 Alpha  occ. eigenvalues --   -0.38087  -0.37622  -0.30779
 Alpha virt. eigenvalues --    0.04166   0.06181   0.10098   0.11989   0.12674
 Alpha virt. eigenvalues --    0.13415   0.13901   0.14603   0.15814   0.16611
 Alpha virt. eigenvalues --    0.17095   0.18249   0.18714   0.20095   0.20348

 Mulliken charges:
               1
     1  C   -0.203769
     2  H    0.138415
     3  C   -0.116452
     4  H    0.136713
     5  C   -0.118075
     6  H    0.133613
     7  C   -0.336634
     8  H    0.131923
     9  H    0.125700
    10  H    0.128996
    11  C   -0.215206
    12  H    0.151815
    13  C   -0.024910
    14  H    0.138272
    15  H    0.142878
    16  C    0.462357
    17  C   -0.417170
    18  H    0.173731
    19  H    0.173664
    20  H    0.158817
    21  O   -0.245828
    22  O   -0.499685
    23  O   -0.693432
    24  H    0.344754
    25  H    0.333782
    26  O   -0.676687
    27  H    0.328734
    28  H    0.343684
 Sum of Mulliken charges =   0.00000

 Dipole moment (field-independent basis, Debye):
    X=             -3.6534    Y=             -6.1148    Z=             -0.2512  Tot=              7.1275
 Quadrupole moment (field-independent basis, Debye-Ang):
   XX=            -81.3474   YY=            -77.2147   ZZ=            -72.5755
   XY=             -4.6340   XZ=             -9.4432   YZ=             -0.4505

 Normal termination of Gaussian 09 at Wed Feb 23 19:48:16 2022.
