 Gaussian 09, Revision D.01,
 Gaussian 09:  ES64L-G09RevD.01 24-Apr-2013

 ---------------------------------------------------------------------
 #n wB97XD/Def2TZVP scrf(smd,solvent=toluene) opt int=(grid=ultrafine)
 ---------------------------------------------------------------------

 -------------------------------------------
 dieneophile diels-alder toluene 2 h2o - opt
 -------------------------------------------
 Symbolic Z-matrix:
 Charge =  0 Multiplicity = 1

 SCF Done:  E(RwB97XD) =  -551.680317313     A.U. after   12 cycles
 SCF Done:  E(RwB97XD) =  -551.680532595     A.U. after    9 cycles
 SCF Done:  E(RwB97XD) =  -551.680541831     A.U. after    9 cycles
 SCF Done:  E(RwB97XD) =  -551.680548984     A.U. after   10 cycles
 SCF Done:  E(RwB97XD) =  -551.680551616     A.U. after    9 cycles
 SCF Done:  E(RwB97XD) =  -551.680555674     A.U. after   10 cycles
 SCF Done:  E(RwB97XD) =  -551.680563718     A.U. after   10 cycles
 SCF Done:  E(RwB97XD) =  -551.680561501     A.U. after    8 cycles
 SCF Done:  E(RwB97XD) =  -551.680548327     A.U. after   12 cycles
 SCF Done:  E(RwB97XD) =  -551.680408371     A.U. after   12 cycles
 SCF Done:  E(RwB97XD) =  -551.680962930     A.U. after    8 cycles
 SCF Done:  E(RwB97XD) =  -551.680963659     A.U. after    9 cycles
 SCF Done:  E(RwB97XD) =  -551.680964497     A.U. after   10 cycles
 SCF Done:  E(RwB97XD) =  -551.680964743     A.U. after    9 cycles
 SCF Done:  E(RwB97XD) =  -551.680964867     A.U. after    9 cycles
 SCF Done:  E(RwB97XD) =  -551.680965024     A.U. after    8 cycles
 SCF Done:  E(RwB97XD) =  -551.680965057     A.U. after    7 cycles
 SCF Done:  E(RwB97XD) =  -551.680965046     A.U. after    7 cycles
 SCF Done:  E(RwB97XD) =  -551.680965036     A.U. after    8 cycles
 SCF Done:  E(RwB97XD) =  -551.680965035     A.U. after    8 cycles
 Optimization completed.
    -- Stationary point found.

                         Standard orientation:
 ---------------------------------------------------------------------
 Center     Atomic      Atomic             Coordinates (Angstroms)
 Number     Number       Type             X           Y           Z
 ---------------------------------------------------------------------
      1          6           0       -1.131212    0.320824   -0.023914
      2          6           0       -0.658994   -1.098849   -0.043327
      3          6           0        0.665369   -1.094138   -0.032584
      4          6           0        1.130416    0.328183   -0.008156
      5          1           0       -1.349970   -1.928506   -0.059877
      6          1           0        1.362646   -1.918747   -0.038862
      7          6           0       -0.021124    2.561490    0.022290
      8          1           0        1.009210    2.909743    0.016467
      9          1           0       -0.540946    2.951795   -0.852128
     10          1           0       -0.518846    2.917992    0.923892
     11          7           0       -0.004010    1.117408   -0.006645
     12          8           0        2.265718    0.738741    0.008241
     13          8           0       -2.266784    0.732022   -0.022175
     14          8           0        3.952871   -1.608527    0.112699
     15          1           0        4.544955   -1.631884   -0.640402
     16          1           0        3.552285   -0.728153    0.095758
     17          8           0       -3.937976   -1.626457   -0.043676
     18          1           0       -3.545601   -0.742165   -0.054973
     19          1           0       -4.503031   -1.643232    0.730062
 ---------------------------------------------------------------------

 The electronic state is 1-A.
 Alpha  occ. eigenvalues --  -19.26905 -19.26871 -19.23149 -19.23132 -14.49846
 Alpha  occ. eigenvalues --  -10.42844 -10.42718 -10.32777 -10.32775 -10.32679
 Alpha  occ. eigenvalues --   -1.20246  -1.18293  -1.09687  -1.09608  -1.08639
 Alpha  occ. eigenvalues --   -0.94614  -0.82368  -0.78673  -0.72051  -0.66454
 Alpha  occ. eigenvalues --   -0.61380  -0.60781  -0.60719  -0.59955  -0.57121
 Alpha  occ. eigenvalues --   -0.55216  -0.54542  -0.52781  -0.51510  -0.50959
 Alpha  occ. eigenvalues --   -0.49532  -0.46455  -0.46272  -0.40507  -0.40023
 Alpha  occ. eigenvalues --   -0.39215  -0.38895  -0.37378  -0.36964
 Alpha virt. eigenvalues --   -0.03751   0.11524   0.11555   0.12624   0.12703
 Alpha virt. eigenvalues --    0.13056   0.16370   0.17387   0.18655   0.20376
 Alpha virt. eigenvalues --    0.21107   0.21291   0.21382   0.23117   0.24101

 Mulliken charges:
               1
     1  C    0.362568
     2  C   -0.201279
     3  C   -0.186063
     4  C    0.355929
     5  H    0.210249
     6  H    0.208293
     7  C   -0.287040
     8  H    0.167834
     9  H    0.155359
    10  H    0.154281
    11  N   -0.087984
    12  O   -0.418486
    13  O   -0.411027
    14  O   -0.686508
    15  H    0.336358
    16  H    0.339231
    17  O   -0.687067
    18  H    0.339042
    19  H    0.336307
 Sum of Mulliken charges =   0.00000

 Dipole moment (field-independent basis, Debye):
    X=              0.0684    Y=              2.1992    Z=             -0.0481  Tot=              2.2008
 Quadrupole moment (field-independent basis, Debye-Ang):
   XX=            -70.8174   YY=            -57.8549   ZZ=            -57.1771
   XY=             -0.0619   XZ=            -13.7696   YZ=              0.2242

 1\1\GINC-D10S4B4\FOpt\RwB97XD\def2TZVP\C5H9N1O4\PMMASS\02-Mar-2022\0\\
 #n wB97XD/Def2TZVP scrf(smd,solvent=toluene) opt int=(grid=ultrafine)\
 \dieneophile diels-alder toluene 2 h2o - opt\\0,1\C,1.130453644,0.3145
 795205,0.1225101482\C,0.6618748789,-1.1063475137,0.1379801908\C,-0.662
 0101781,-1.1054513569,0.1005386\C,-1.1304096407,0.31543377,0.061160922
 3\H,1.3546737272,-1.9339616107,0.1717061652\H,-1.3569846975,-1.9320130
 468,0.0960059587\C,0.0153180584,2.5518781607,0.0451510175\H,-1.0158848
 848,2.8972132403,0.0288462772\H,0.5163241047,2.9470446544,0.9283248227

 Normal termination of Gaussian 09 at Wed Mar  2 21:48:32 2022.
