 Gaussian 09, Revision D.01,
 Gaussian 09:  ES64L-G09RevD.01 24-Apr-2013

 ----------------------------------------------------------------------
 #n wB97XD/Def2TZVP scrf(smd,solvent=toluene) freq int=(grid=ultrafine)
 ----------------------------------------------------------------------

 -----------------------------
 ts diels water toluene - freq
 -----------------------------
 Symbolic Z-matrix:
 Charge =  0 Multiplicity = 1

                         Standard orientation:
 ---------------------------------------------------------------------
 Center     Atomic      Atomic             Coordinates (Angstroms)
 Number     Number       Type             X           Y           Z
 ---------------------------------------------------------------------
      1          6           0       -2.684599    0.621711   -0.765080
      2          6           0       -1.888020   -0.609290   -0.578540
      3          6           0       -0.552549   -0.238800   -0.538970
      4          6           0       -0.500659    1.229630   -0.707580
      5          1           0       -2.274850   -1.558520   -0.910460
      6          1           0        0.277100   -0.865090   -0.834250
      7          6           0       -2.169768    3.082900   -0.825430
      8          1           0       -1.909648    3.462000   -1.814930
      9          1           0       -3.244838    3.165001   -0.683220
     10          1           0       -1.657238    3.675910   -0.068590
     11          7           0       -1.801679    1.693440   -0.692240
     12          8           0        0.474751    1.943349   -0.843210
     13          8           0       -3.875329    0.740751   -0.963920
     14          6           0       -1.574490   -1.884290    1.900610
     15          1           0       -1.778130   -2.946110    1.994170
     16          6           0       -0.245120   -1.470950    1.933450
     17          1           0        0.521860   -2.230581    2.034390
     18          6           0       -2.615300   -1.054719    1.542800
     19          1           0       -2.503479    0.012220    1.704920
     20          6           0       -4.022960   -1.541079    1.443740
     21          1           0       -4.605770   -0.939329    0.747380
     22          1           0       -4.070080   -2.583959    1.130710
     23          1           0       -4.508020   -1.453919    2.421240
     24          6           0        0.137211   -0.190050    1.600580
     25          1           0       -0.548259    0.630050    1.783670
     26          6           0        1.568661    0.242229    1.567070
     27          1           0        1.957651    0.344139    2.584940
     28          1           0        1.653831    1.204899    1.068950
     29          6           0        3.472360   -0.462842    0.264050
     30          6           0        4.074961    0.894958    0.437870
     31          1           0        4.077771    1.201508    1.483880
     32          1           0        5.089091    0.885908    0.046990
     33          1           0        3.486231    1.625588   -0.121850
     34          8           0        2.331150   -0.751541    0.875130
     35          8           0        3.966670   -1.335042   -0.420370
     36          1           0       -4.665360   -0.879889   -1.621980
     37          1           0        1.317512    4.687329    0.921080
     38          1           0        2.381090   -2.441881   -1.001020
     39          1           0        5.681950   -1.011452   -1.213430
     40          8           0        1.559080   -2.744351   -1.411010
     41          1           0        1.795970   -2.964611   -2.313160
     42          8           0        6.522230   -0.686973   -1.568810
     43          1           0        6.349910   -0.509262   -2.494400
     44          8           0        0.939672    3.845989    1.181500
     45          1           0        0.801692    3.355699    0.358320
     46          8           0       -4.910620   -1.743659   -1.985420
     47          1           0       -5.073440   -1.584379   -2.916190
 ---------------------------------------------------------------------

 SCF Done:  E(RwB97XD) =  -1167.09680923     A.U. after   15 cycles

 The electronic state is 1-A.
 Alpha  occ. eigenvalues --  -19.31300 -19.25427 -19.25402 -19.25294 -19.23868
 Alpha  occ. eigenvalues --  -19.23174 -19.22539 -19.22496 -14.48942 -10.43826
 Alpha  occ. eigenvalues --  -10.41591 -10.41460 -10.35731 -10.32234 -10.32053
 Alpha  occ. eigenvalues --  -10.31902 -10.31030 -10.30817 -10.29855 -10.29638
 Alpha  occ. eigenvalues --  -10.29165 -10.27653  -1.23307  -1.18879  -1.16795
 Alpha  occ. eigenvalues --   -1.14308  -1.10262  -1.09576  -1.08994  -1.08957
 Alpha  occ. eigenvalues --   -1.07313  -0.95148  -0.92068  -0.89691  -0.86127
 Alpha  occ. eigenvalues --   -0.83900  -0.81036  -0.78215  -0.76341  -0.71917
 Alpha  occ. eigenvalues --   -0.70850  -0.68142  -0.65050  -0.63013  -0.62608
 Alpha  occ. eigenvalues --   -0.61670  -0.60958  -0.60787  -0.60429  -0.59797
 Alpha  occ. eigenvalues --   -0.59193  -0.59011  -0.58516  -0.56557  -0.55940
 Alpha  occ. eigenvalues --   -0.54812  -0.53829  -0.53362  -0.52287  -0.52011
 Alpha  occ. eigenvalues --   -0.51665  -0.50483  -0.50076  -0.49454  -0.48955
 Alpha  occ. eigenvalues --   -0.48562  -0.48299  -0.47777  -0.46923  -0.46467
 Alpha  occ. eigenvalues --   -0.45932  -0.45698  -0.45232  -0.44575  -0.43939
 Alpha  occ. eigenvalues --   -0.43658  -0.40311  -0.39655  -0.39159  -0.39006
 Alpha  occ. eigenvalues --   -0.38643  -0.38366  -0.38077  -0.36962  -0.36486
 Alpha  occ. eigenvalues --   -0.32613  -0.31352
 Alpha virt. eigenvalues --   -0.01537   0.01838   0.06298   0.09621   0.10106
 Alpha virt. eigenvalues --    0.11002   0.11707   0.12082   0.13031   0.13541
 Alpha virt. eigenvalues --    0.13831   0.14567   0.15045   0.15920   0.16140

 Mulliken charges:
               1
     1  C    0.280558
     2  C   -0.210759
     3  C   -0.094821
     4  C    0.283224
     5  H    0.201829
     6  H    0.169506
     7  C   -0.311709
     8  H    0.153299
     9  H    0.165897
    10  H    0.147832
    11  N   -0.070570
    12  O   -0.468801
    13  O   -0.450946
    14  C   -0.133444
    15  H    0.147123
    16  C   -0.137852
    17  H    0.158970
    18  C   -0.088645
    19  H    0.149022
    20  C   -0.360671
    21  H    0.138239
    22  H    0.138558
    23  H    0.147732
    24  C   -0.120671
    25  H    0.166999
    26  C   -0.045263
    27  H    0.158444
    28  H    0.129286
    29  C    0.463362
    30  C   -0.429886
    31  H    0.167642
    32  H    0.170624
    33  H    0.177780
    34  O   -0.255921
    35  O   -0.501716
    36  H    0.336618
    37  H    0.334890
    38  H    0.337912
    39  H    0.346597
    40  O   -0.678406
    41  H    0.336038
    42  O   -0.691659
    43  H    0.332026
    44  O   -0.674134
    45  H    0.331515
    46  O   -0.674914
    47  H    0.329265
 Sum of Mulliken charges =   0.00000

 Dipole moment (field-independent basis, Debye):
    X=             -1.3193    Y=              4.0007    Z=              0.4847  Tot=              4.2404
 Quadrupole moment (field-independent basis, Debye-Ang):
   XX=           -173.5930   YY=           -130.5758   ZZ=           -118.7598
   XY=              4.1649   XZ=             -0.5334   YZ=             -5.1972

  Exact polarizability: 288.385  17.383 231.496   3.977 -24.013 210.833
 Approx polarizability: 262.816  13.482 223.254   3.674 -18.058 221.349

 ******    1 imaginary frequencies (negative Signs) ******

                      1                      2                      3
                      A                      A                      A
 Frequencies --   -521.7885                13.4898                19.7601
 Red. masses --      8.3474                 5.6089                 5.1211
 Frc consts  --      1.3390                 0.0006                 0.0012
 IR Inten    --     13.6173                 1.4875                 0.7316

                      4                      5                      6
                      A                      A                      A
 Frequencies --     25.7009                28.7585                34.7560
 Red. masses --      5.6095                 4.7517                 6.3157
 Frc consts  --      0.0022                 0.0023                 0.0045
 IR Inten    --      1.0849                 3.0303                 0.9839

                      7                      8                      9
                      A                      A                      A
 Frequencies --     40.9652                41.7519                45.5887
 Red. masses --      4.5865                 4.4826                 5.2006
 Frc consts  --      0.0045                 0.0046                 0.0064
 IR Inten    --      0.9369                 0.9683                 9.2964

                     10                     11                     12
                      A                      A                      A
 Frequencies --     47.7689                66.3310                76.8940
 Red. masses --      5.3903                 4.5194                 1.2555
 Frc consts  --      0.0072                 0.0117                 0.0044
 IR Inten    --      4.7294                 7.3529                 2.4859

                     13                     14                     15
                      A                      A                      A
 Frequencies --     79.4015                90.2872                94.7171
 Red. masses --      4.1212                 5.8729                 1.1611
 Frc consts  --      0.0153                 0.0282                 0.0061
 IR Inten    --      2.6730                 7.2576               131.8846

                     16                     17                     18
                      A                      A                      A
 Frequencies --    101.1992               113.3339               124.5931
 Red. masses --      3.7205                 1.1162                 5.1997
 Frc consts  --      0.0224                 0.0084                 0.0476
 IR Inten    --      1.7073               139.8166                13.7248

                     19                     20                     21
                      A                      A                      A
 Frequencies --    127.6410               128.8493               138.8802
 Red. masses --      1.2049                 3.9472                 3.5753
 Frc consts  --      0.0116                 0.0386                 0.0406
 IR Inten    --    107.1710                12.1789                14.7318

                     22                     23                     24
                      A                      A                      A
 Frequencies --    146.8841               153.7303               156.4158
 Red. masses --      5.2720                 5.0406                 1.5325
 Frc consts  --      0.0670                 0.0702                 0.0221
 IR Inten    --      7.0685                 5.0649                90.1210

                     25                     26                     27
                      A                      A                      A
 Frequencies --    158.1429               162.0840               187.2297
 Red. masses --      6.8887                 2.5473                 1.2956
 Frc consts  --      0.1015                 0.0394                 0.0268
 IR Inten    --      5.5963                42.4035                10.9102

                     28                     29                     30
                      A                      A                      A
 Frequencies --    198.6197               207.9945               211.6347
 Red. masses --      5.0655                 1.6898                 6.0271
 Frc consts  --      0.1177                 0.0431                 0.1591
 IR Inten    --      9.3559                 2.3492                 6.1763

                     31                     32                     33
                      A                      A                      A
 Frequencies --    220.5486               243.5902               265.8769
 Red. masses --      1.7484                 3.5510                 2.3725
 Frc consts  --      0.0501                 0.1241                 0.0988
 IR Inten    --      0.4129                13.4434                 9.3676

                     34                     35                     36
                      A                      A                      A
 Frequencies --    286.8447               292.9970               301.4450
 Red. masses --      1.2762                 3.0429                 2.0636
 Frc consts  --      0.0619                 0.1539                 0.1105
 IR Inten    --     47.3640                 7.7138                32.8780

                     37                     38                     39
                      A                      A                      A
 Frequencies --    321.3751               326.7648               344.4361
 Red. masses --      2.2824                 1.0714                 1.1048
 Frc consts  --      0.1389                 0.0674                 0.0772
 IR Inten    --     30.0387               102.1929               197.0171

                     40                     41                     42
                      A                      A                      A
 Frequencies --    356.8530               365.3064               411.9276
 Red. masses --      1.1301                 3.1468                 6.4061
 Frc consts  --      0.0848                 0.2474                 0.6405
 IR Inten    --    115.4476                 2.3536                25.5415

                     43                     44                     45
                      A                      A                      A
 Frequencies --    442.3554               473.1138               498.4864
 Red. masses --      4.0952                 2.8988                 3.1759
 Frc consts  --      0.4721                 0.3823                 0.4650
 IR Inten    --     12.6058                 3.4678                 2.3735

                     46                     47                     48
                      A                      A                      A
 Frequencies --    548.4771               562.1104               566.9169
 Red. masses --      1.2653                 1.7023                 1.5956
 Frc consts  --      0.2243                 0.3169                 0.3021
 IR Inten    --     84.9725               103.2805                25.6325

                     49                     50                     51
                      A                      A                      A
 Frequencies --    594.5461               596.4416               616.0387
 Red. masses --      1.7954                 1.2934                 1.3148
 Frc consts  --      0.3739                 0.2711                 0.2940
 IR Inten    --    103.8783               177.0386               218.5307

                     52                     53                     54
                      A                      A                      A
 Frequencies --    625.3991               631.5072               640.2217
 Red. masses --      5.3682                 2.3865                 3.2505
 Frc consts  --      1.2371                 0.5607                 0.7850
 IR Inten    --     43.7104                37.9131                 2.3244

                     55                     56                     57
                      A                      A                      A
 Frequencies --    719.7815               729.8130               751.0696
 Red. masses --      3.8116                 7.2377                 5.0866
 Frc consts  --      1.1635                 2.2713                 1.6906
 IR Inten    --      3.4120                60.4916                12.1666

                     58                     59                     60
                      A                      A                      A
 Frequencies --    786.0820               796.0106               803.0117
 Red. masses --      3.0735                 8.3662                 1.6327
 Frc consts  --      1.1190                 3.1233                 0.6203
 IR Inten    --      2.0751                 5.7084                15.5805

                     61                     62                     63
                      A                      A                      A
 Frequencies --    847.8180               876.9882               923.5146
 Red. masses --      2.2997                 1.6932                 1.5159
 Frc consts  --      0.9739                 0.7673                 0.7617
 IR Inten    --      6.5827                10.0156                 1.9667

                     64                     65                     66
                      A                      A                      A
 Frequencies --    946.7407               978.7018               980.0268
 Red. masses --      1.7156                 1.2523                 1.8785
 Frc consts  --      0.9060                 0.7067                 1.0630
 IR Inten    --      3.9602               127.5928                62.3697

                     67                     68                     69
                      A                      A                      A
 Frequencies --    991.9668              1017.2037              1031.2715
 Red. masses --      1.5933                 1.3605                 1.4236
 Frc consts  --      0.9237                 0.8294                 0.8921
 IR Inten    --      1.1506                30.3870                23.4697

                     70                     71                     72
                      A                      A                      A
 Frequencies --   1043.1057              1056.6340              1069.3271
 Red. masses --      1.5201                 1.5412                 1.5132
 Frc consts  --      0.9745                 1.0138                 1.0194
 IR Inten    --     21.3862                28.0209                31.4983

                     73                     74                     75
                      A                      A                      A
 Frequencies --   1074.1042              1089.8846              1118.9516
 Red. masses --      1.8616                 1.5020                 2.5364
 Frc consts  --      1.2654                 1.0512                 1.8711
 IR Inten    --      9.8884                15.5166                48.9532

                     76                     77                     78
                      A                      A                      A
 Frequencies --   1143.9063              1150.5890              1164.2348
 Red. masses --      2.3669                 2.6795                 1.3116
 Frc consts  --      1.8248                 2.0900                 1.0474
 IR Inten    --     26.9885                39.0074                 3.1852

                     79                     80                     81
                      A                      A                      A
 Frequencies --   1169.2211              1197.9960              1274.6137
 Red. masses --      3.4179                 1.9646                 1.2535
 Frc consts  --      2.7530                 1.6613                 1.1999
 IR Inten    --     74.1461                 7.9881                91.2264

                     82                     83                     84
                      A                      A                      A
 Frequencies --   1294.5744              1300.3240              1311.0839
 Red. masses --      1.9105                 1.9078                 1.5140
 Frc consts  --      1.8865                 1.9005                 1.5333
 IR Inten    --    126.8346                 5.6937                69.2628

                     85                     86                     87
                      A                      A                      A
 Frequencies --   1346.0063              1354.5617              1358.6718
 Red. masses --      1.7281                 1.6042                 1.7221
 Frc consts  --      1.8447                 1.7342                 1.8730
 IR Inten    --    198.3428               120.4959                69.6987

                     88                     89                     90
                      A                      A                      A
 Frequencies --   1396.4207              1417.0973              1422.0609
 Red. masses --      1.7883                 1.4818                 1.2911
 Frc consts  --      2.0546                 1.7532                 1.5383
 IR Inten    --      8.2287               194.0545                 6.4664

                     91                     92                     93
                      A                      A                      A
 Frequencies --   1443.9834              1445.9865              1456.1483
 Red. masses --      1.5722                 1.4482                 2.5750
 Frc consts  --      1.9314                 1.7841                 3.2170
 IR Inten    --    125.0388                39.8982                23.3000

                     94                     95                     96
                      A                      A                      A
 Frequencies --   1475.6053              1479.2637              1484.0292
 Red. masses --      1.1104                 1.0888                 1.1333
 Frc consts  --      1.4245                 1.4038                 1.4705
 IR Inten    --     13.0195                12.4068                80.9415

                     97                     98                     99
                      A                      A                      A
 Frequencies --   1485.1648              1492.3562              1494.7051
 Red. masses --      1.3828                 1.0914                 1.3005
 Frc consts  --      1.7970                 1.4322                 1.7118
 IR Inten    --    127.2850                28.6198               122.0216

                    100                    101                    102
                      A                      A                      A
 Frequencies --   1502.8326              1512.9592              1622.9469
 Red. masses --      1.0889                 1.2436                 3.3130
 Frc consts  --      1.4490                 1.6772                 5.1414
 IR Inten    --      8.4665                55.9121                57.2709

                    103                    104                    105
                      A                      A                      A
 Frequencies --   1625.5822              1637.5567              1639.8245
 Red. masses --      3.5548                 1.1063                 1.0935
 Frc consts  --      5.5346                 1.7479                 1.7325
 IR Inten    --      7.0874               121.4685               142.0938

                    106                    107                    108
                      A                      A                      A
 Frequencies --   1649.8953              1654.5357              1751.9861
 Red. masses --      1.0787                 1.0822                10.1243
 Frc consts  --      1.7301                 1.7455                18.3095
 IR Inten    --     41.4456                81.6932              1264.9806

                    109                    110                    111
                      A                      A                      A
 Frequencies --   1780.2335              1822.6912              3051.4537
 Red. masses --     10.1079                11.0891                 1.0432
 Frc consts  --     18.8741                21.7056                 5.7232
 IR Inten    --    556.9787               203.5395                18.1733

                    112                    113                    114
                      A                      A                      A
 Frequencies --   3060.0889              3069.1217              3071.9358
 Red. masses --      1.0693                 1.0353                 1.0385
 Frc consts  --      5.8996                 5.7456                 5.7742
 IR Inten    --     14.0636                37.7634                 1.5262

                    115                    116                    117
                      A                      A                      A
 Frequencies --   3122.8429              3143.0186              3146.1281
 Red. masses --      1.0925                 1.1047                 1.0984
 Frc consts  --      6.2772                 6.4298                 6.4058
 IR Inten    --      6.3627                 9.2573                 1.6301

                    118                    119                    120
                      A                      A                      A
 Frequencies --   3157.4806              3165.7421              3174.5640
 Red. masses --      1.1012                 1.0942                 1.0910
 Frc consts  --      6.4684                 6.4610                 6.4782
 IR Inten    --      5.2096                 0.4349                 0.8498

                    121                    122                    123
                      A                      A                      A
 Frequencies --   3178.2286              3182.3521              3185.4770
 Red. masses --      1.1035                 1.0866                 1.0967
 Frc consts  --      6.5675                 6.4836                 6.5569
 IR Inten    --      0.6577                18.6775                 2.5827

                    124                    125                    126
                      A                      A                      A
 Frequencies --   3185.6756              3200.4821              3237.6001
 Red. masses --      1.0966                 1.0915                 1.0955
 Frc consts  --      6.5569                 6.5871                 6.7655
 IR Inten    --      3.8835                 5.0389                55.0784

                    127                    128                    129
                      A                      A                      A
 Frequencies --   3271.8789              3706.2144              3713.1330
 Red. masses --      1.0970                 1.0574                 1.0570
 Frc consts  --      6.9192                 8.5578                 8.5860
 IR Inten    --      6.8150               641.1889               267.0258

                    130                    131                    132
                      A                      A                      A
 Frequencies --   3713.7887              3743.2296              3922.0884
 Red. masses --      1.0569                 1.0553                 1.0713
 Frc consts  --      8.5885                 8.7120                 9.7097
 IR Inten    --    555.3265               214.8119               205.0831

                    133                    134                    135
                      A                      A                      A
 Frequencies --   3922.4631              3923.1226              3925.1151
 Red. masses --      1.0716                 1.0720                 1.0720
 Frc consts  --      9.7140                 9.7213                 9.7307
 IR Inten    --     51.7420                59.7819               152.2010

 - Thermochemistry -
 -------------------
 Temperature   298.150 Kelvin.  Pressure   1.00000 Atm.
 Atom     1 has atomic number  6 and mass  12.00000

 Molecular mass:   323.15802 amu.
 Principal axes and moments of inertia in atomic units:
                           1         2         3
     Eigenvalues --  5178.58499********************
           X            0.99991   0.01224  -0.00477
           Y           -0.01219   0.99988   0.00925
           Z            0.00488  -0.00919   0.99995
 This molecule is an asymmetric top.
 Rotational symmetry number  1.
 Warning -- assumption of classical behavior for rotation
           may cause significant error
 Rotational temperatures (Kelvin)      0.01673     0.00712     0.00629
 Rotational constants (GHZ):           0.34850     0.14831     0.13116
    1 imaginary frequencies ignored.
 Zero-point vibrational energy    1005592.1 (Joules/Mol)
                                  240.34227 (Kcal/Mol)
 Warning -- explicit consideration of  50 degrees of freedom as
           vibrations may cause significant error
 Vibrational temperatures:     19.41    28.43    36.98    41.38    50.01
          (Kelvin)             58.94    60.07    65.59    68.73    95.44
                              110.63   114.24   129.90   136.28   145.60
                              163.06   179.26   183.65   185.39   199.82
                              211.33   221.18   225.05   227.53   233.20
                              269.38   285.77   299.26   304.49   317.32
                              350.47   382.54   412.71   421.56   433.71
                              462.39   470.14   495.57   513.43   525.59
                              592.67   636.45   680.70   717.21   789.14
                              808.75   815.67   855.42   858.15   886.34
                              899.81   908.60   921.14  1035.60  1050.04
                             1080.62  1131.00  1145.28  1155.35  1219.82
                             1261.79  1328.73  1362.15  1408.13  1410.04
                             1427.22  1463.53  1483.77  1500.79  1520.26
                             1538.52  1545.39  1568.10  1609.92  1645.82
                             1655.44  1675.07  1682.25  1723.65  1833.88
                             1862.60  1870.87  1886.35  1936.60  1948.91
                             1954.82  2009.14  2038.88  2046.03  2077.57
                             2080.45  2095.07  2123.06  2128.33  2135.18
                             2136.82  2147.17  2150.54  2162.24  2176.81
                             2335.06  2338.85  2356.08  2359.34  2373.83
                             2380.50  2520.71  2561.36  2622.44  4390.36
                             4402.78  4415.78  4419.82  4493.07  4522.10
                             4526.57  4542.90  4554.79  4567.48  4572.76
                             4578.69  4583.19  4583.47  4604.77  4658.18
                             4707.50  5332.41  5342.36  5343.31  5385.67
                             5643.00  5643.54  5644.49  5647.36

 Zero-point correction=                           0.383010 (Hartree/Particle)
 Thermal correction to Energy=                    0.415593
 Thermal correction to Enthalpy=                  0.416537
 Thermal correction to Gibbs Free Energy=         0.313863
 Sum of electronic and zero-point Energies=          -1166.713799
 Sum of electronic and thermal Energies=             -1166.681217
 Sum of electronic and thermal Enthalpies=           -1166.680272
 Sum of electronic and thermal Free Energies=        -1166.782946

                     E (Thermal)             CV                S
                      KCal/Mol        Cal/Mol-Kelvin    Cal/Mol-Kelvin
 Total                  260.788            108.729            216.095
 Electronic               0.000              0.000              0.000
 Translational            0.889              2.981             43.214
 Rotational               0.889              2.981             35.116
 Vibrational            259.011            102.767            137.765
 Vibration     1          0.593              1.987              7.416
 Vibration     2          0.593              1.986              6.658
 Vibration     3          0.593              1.985              6.136
 Vibration     4          0.593              1.984              5.913
 Vibration     5          0.594              1.983              5.538
 Vibration     6          0.594              1.981              5.212
 Vibration     7          0.594              1.980              5.174
 Vibration     8          0.595              1.979              5.000
 Vibration     9          0.595              1.978              4.908
 Vibration    10          0.598              1.970              4.259
 Vibration    11          0.599              1.965              3.969
 Vibration    12          0.600              1.963              3.906
 Vibration    13          0.602              1.956              3.654
 Vibration    14          0.603              1.953              3.560
 Vibration    15          0.604              1.948              3.431
 Vibration    16          0.607              1.938              3.211
 Vibration    17          0.610              1.928              3.028
 Vibration    18          0.611              1.926              2.981
 Vibration    19          0.611              1.924              2.963
 Vibration    20          0.614              1.914              2.819
 Vibration    21          0.617              1.906              2.712
 Vibration    22          0.619              1.899              2.626
 Vibration    23          0.620              1.895              2.593
 Vibration    24          0.621              1.894              2.572
 Vibration    25          0.622              1.889              2.525
 Vibration    26          0.632              1.857              2.255
 Vibration    27          0.637              1.842              2.146
 Vibration    28          0.641              1.828              2.061
 Vibration    29          0.643              1.823              2.030
 Vibration    30          0.647              1.810              1.955
 Vibration    31          0.659              1.773              1.777
 Vibration    32          0.672              1.736              1.623
 Vibration    33          0.684              1.698              1.493
 Vibration    34          0.688              1.687              1.457
 Vibration    35          0.693              1.671              1.409
 Vibration    36          0.707              1.633              1.303
 Vibration    37          0.710              1.622              1.276
 Vibration    38          0.723              1.587              1.192
 Vibration    39          0.732              1.561              1.136
 Vibration    40          0.739              1.544              1.099
 Vibration    41          0.776              1.444              0.920
 Vibration    42          0.802              1.378              0.819
 Vibration    43          0.830              1.310              0.729
 Vibration    44          0.854              1.253              0.662
 Vibration    45          0.904              1.143              0.547
 Vibration    46          0.918              1.113              0.520
 Vibration    47          0.923              1.103              0.510
 Vibration    48          0.952              1.043              0.459
 Vibration    49          0.954              1.039              0.456
 Vibration    50          0.976              0.998              0.423

 Normal termination of Gaussian 09 at Wed Mar  2 18:37:31 2022.
