 Gaussian 09, Revision D.01,
 Gaussian 09:  ES64L-G09RevD.01 24-Apr-2013

 ----------------------------------------------------------------------
 #n wB97XD/Def2TZVP scrf(smd,solvent=toluene) opt=(calcfc,ts,noeigentes
 t) int=(grid=ultrafine)
 ----------------------------------------------------------------------

 ----------------------------------
 ts diels alder toluene 4 h2o - opt
 ----------------------------------
 Symbolic Z-matrix:
 Charge =  0 Multiplicity = 1

 SCF Done:  E(RwB97XD) =  -1167.09664595     A.U. after   15 cycles

  Exact polarizability:   0.000   0.000   0.000   0.000   0.000   0.000
 Approx polarizability: 263.631  12.510 223.242   3.307 -18.251 220.670

 SCF Done:  E(RwB97XD) =  -1167.09659296     A.U. after   13 cycles
 SCF Done:  E(RwB97XD) =  -1167.09678952     A.U. after   12 cycles
 SCF Done:  E(RwB97XD) =  -1167.09680326     A.U. after   10 cycles
 SCF Done:  E(RwB97XD) =  -1167.09680585     A.U. after   10 cycles
 SCF Done:  E(RwB97XD) =  -1167.09680610     A.U. after   10 cycles
 SCF Done:  E(RwB97XD) =  -1167.09680888     A.U. after   10 cycles
 SCF Done:  E(RwB97XD) =  -1167.09676331     A.U. after   11 cycles
 SCF Done:  E(RwB97XD) =  -1167.09680873     A.U. after   11 cycles
 SCF Done:  E(RwB97XD) =  -1167.09614239     A.U. after   14 cycles
 SCF Done:  E(RwB97XD) =  -1167.09659558     A.U. after   12 cycles
 SCF Done:  E(RwB97XD) =  -1167.09674642     A.U. after   12 cycles
 SCF Done:  E(RwB97XD) =  -1167.09680828     A.U. after   11 cycles
 SCF Done:  E(RwB97XD) =  -1167.09679775     A.U. after   10 cycles
 SCF Done:  E(RwB97XD) =  -1167.09680966     A.U. after   10 cycles
 SCF Done:  E(RwB97XD) =  -1167.09680936     A.U. after    7 cycles
 SCF Done:  E(RwB97XD) =  -1167.09680738     A.U. after    9 cycles
 SCF Done:  E(RwB97XD) =  -1167.09680924     A.U. after    9 cycles
 SCF Done:  E(RwB97XD) =  -1167.09680923     A.U. after    6 cycles
 Optimization completed on the basis of negligible forces.
    -- Stationary point found.

                         Standard orientation:
 ---------------------------------------------------------------------
 Center     Atomic      Atomic             Coordinates (Angstroms)
 Number     Number       Type             X           Y           Z
 ---------------------------------------------------------------------
      1          6           0       -2.684598    0.621711   -0.765080
      2          6           0       -1.888022   -0.609292   -0.578540
      3          6           0       -0.552547   -0.238802   -0.538967
      4          6           0       -0.500659    1.229633   -0.707582
      5          1           0       -2.274852   -1.558522   -0.910455
      6          1           0        0.277105   -0.865086   -0.834249
      7          6           0       -2.169772    3.082901   -0.825434
      8          1           0       -1.909654    3.461996   -1.814929
      9          1           0       -3.244839    3.165002   -0.683219
     10          1           0       -1.657241    3.675913   -0.068590
     11          7           0       -1.801683    1.693439   -0.692240
     12          8           0        0.474752    1.943346   -0.843212
     13          8           0       -3.875334    0.740749   -0.963917
     14          6           0       -1.574486   -1.884294    1.900608
     15          1           0       -1.778130   -2.946110    1.994172
     16          6           0       -0.245119   -1.470951    1.933451
     17          1           0        0.521857   -2.230583    2.034386
     18          6           0       -2.615296   -1.054719    1.542804
     19          1           0       -2.503477    0.012224    1.704918
     20          6           0       -4.022962   -1.541080    1.443740
     21          1           0       -4.605772   -0.939327    0.747376
     22          1           0       -4.070075   -2.583959    1.130711
     23          1           0       -4.508016   -1.453916    2.421245
     24          6           0        0.137211   -0.190052    1.600577
     25          1           0       -0.548255    0.630046    1.783668
     26          6           0        1.568662    0.242230    1.567067
     27          1           0        1.957654    0.344144    2.584942
     28          1           0        1.653833    1.204899    1.068945
     29          6           0        3.472364   -0.462844    0.264046
     30          6           0        4.074960    0.894956    0.437865
     31          1           0        4.077772    1.201510    1.483877
     32          1           0        5.089088    0.885914    0.046986
     33          1           0        3.486232    1.625588   -0.121847
     34          8           0        2.331151   -0.751538    0.875126
     35          8           0        3.966667   -1.335041   -0.420367
     36          1           0       -4.665361   -0.879885   -1.621978
     37          1           0        1.317513    4.687329    0.921077
     38          1           0        2.381090   -2.441881   -1.001021
     39          1           0        5.681950   -1.011446   -1.213429
     40          8           0        1.559084   -2.744349   -1.411008
     41          1           0        1.795971   -2.964615   -2.313155
     42          8           0        6.522232   -0.686969   -1.568807
     43          1           0        6.349907   -0.509263   -2.494404
     44          8           0        0.939669    3.845991    1.181500
     45          1           0        0.801686    3.355700    0.358322
     46          8           0       -4.910619   -1.743659   -1.985417
     47          1           0       -5.073437   -1.584375   -2.916186
 ---------------------------------------------------------------------

 The electronic state is 1-A.
 Alpha  occ. eigenvalues --  -19.31300 -19.25427 -19.25402 -19.25294 -19.23868
 Alpha  occ. eigenvalues --  -19.23174 -19.22539 -19.22496 -14.48942 -10.43826
 Alpha  occ. eigenvalues --  -10.41591 -10.41460 -10.35731 -10.32234 -10.32053
 Alpha  occ. eigenvalues --  -10.31902 -10.31030 -10.30817 -10.29855 -10.29638
 Alpha  occ. eigenvalues --  -10.29165 -10.27653  -1.23308  -1.18879  -1.16795
 Alpha  occ. eigenvalues --   -1.14309  -1.10262  -1.09577  -1.08994  -1.08957
 Alpha  occ. eigenvalues --   -1.07313  -0.95148  -0.92068  -0.89691  -0.86127
 Alpha  occ. eigenvalues --   -0.83900  -0.81036  -0.78215  -0.76341  -0.71917
 Alpha  occ. eigenvalues --   -0.70850  -0.68142  -0.65050  -0.63013  -0.62608
 Alpha  occ. eigenvalues --   -0.61670  -0.60958  -0.60787  -0.60429  -0.59797
 Alpha  occ. eigenvalues --   -0.59193  -0.59011  -0.58516  -0.56557  -0.55940
 Alpha  occ. eigenvalues --   -0.54812  -0.53829  -0.53362  -0.52287  -0.52011
 Alpha  occ. eigenvalues --   -0.51665  -0.50483  -0.50076  -0.49454  -0.48955
 Alpha  occ. eigenvalues --   -0.48563  -0.48299  -0.47777  -0.46923  -0.46467
 Alpha  occ. eigenvalues --   -0.45932  -0.45698  -0.45232  -0.44574  -0.43939
 Alpha  occ. eigenvalues --   -0.43658  -0.40311  -0.39655  -0.39158  -0.39007
 Alpha  occ. eigenvalues --   -0.38643  -0.38366  -0.38077  -0.36962  -0.36486
 Alpha  occ. eigenvalues --   -0.32613  -0.31351
 Alpha virt. eigenvalues --   -0.01537   0.01838   0.06298   0.09621   0.10106
 Alpha virt. eigenvalues --    0.11002   0.11707   0.12082   0.13031   0.13541
 Alpha virt. eigenvalues --    0.13831   0.14567   0.15045   0.15920   0.16140

 Mulliken charges:
               1
     1  C    0.280557
     2  C   -0.210755
     3  C   -0.094825
     4  C    0.283224
     5  H    0.201829
     6  H    0.169506
     7  C   -0.311709
     8  H    0.153301
     9  H    0.165897
    10  H    0.147831
    11  N   -0.070570
    12  O   -0.468796
    13  O   -0.450952
    14  C   -0.133443
    15  H    0.147124
    16  C   -0.137854
    17  H    0.158969
    18  C   -0.088648
    19  H    0.149023
    20  C   -0.360671
    21  H    0.138239
    22  H    0.138558
    23  H    0.147731
    24  C   -0.120668
    25  H    0.166998
    26  C   -0.045263
    27  H    0.158443
    28  H    0.129285
    29  C    0.463359
    30  C   -0.429889
    31  H    0.167642
    32  H    0.170624
    33  H    0.177780
    34  O   -0.255923
    35  O   -0.501706
    36  H    0.336618
    37  H    0.334890
    38  H    0.337911
    39  H    0.346595
    40  O   -0.678404
    41  H    0.336038
    42  O   -0.691659
    43  H    0.332027
    44  O   -0.674133
    45  H    0.331515
    46  O   -0.674914
    47  H    0.329264
 Sum of Mulliken charges =   0.00000

 Dipole moment (field-independent basis, Debye):
    X=             -1.3192    Y=              4.0007    Z=              0.4846  Tot=              4.2404
 Quadrupole moment (field-independent basis, Debye-Ang):
   XX=           -173.5932   YY=           -130.5755   ZZ=           -118.7598
   XY=              4.1647   XZ=             -0.5337   YZ=             -5.1972

 Normal termination of Gaussian 09 at Mon Feb 28 22:42:11 2022.
