 Gaussian 09, Revision D.01,
 Gaussian 09:  ES64L-G09RevD.01 24-Apr-2013

 ----------------------------------------------------------------------
 # opt=(calcfc,ts,noeigentest) b3lyp/6-31+g(d,p) scrf=(cpcm,solvent=tol
 uene) geom=connectivity empiricaldispersion=gd3
 ----------------------------------------------------------------------

 -------------------
 Title Card Required
 -------------------
 Symbolic Z-matrix:
 Charge =  0 Multiplicity = 1

 SCF Done:  E(RB3LYP) =  -861.306192357     A.U. after   15 cycles

  Exact polarizability:   0.000   0.000   0.000   0.000   0.000   0.000
 Approx polarizability: 336.282   4.339 321.262  19.968 -18.910 233.004

 SCF Done:  E(RB3LYP) =  -861.317715000     A.U. after   13 cycles
 SCF Done:  E(RB3LYP) =  -861.321148435     A.U. after   13 cycles
 SCF Done:  E(RB3LYP) =  -861.321646934     A.U. after   13 cycles
 SCF Done:  E(RB3LYP) =  -861.321754535     A.U. after   13 cycles
 SCF Done:  E(RB3LYP) =  -861.321711579     A.U. after   13 cycles
 SCF Done:  E(RB3LYP) =  -861.321736758     A.U. after   13 cycles
 SCF Done:  E(RB3LYP) =  -861.321873559     A.U. after   12 cycles
 SCF Done:  E(RB3LYP) =  -861.321927638     A.U. after   12 cycles
 SCF Done:  E(RB3LYP) =  -861.321889266     A.U. after   13 cycles
 SCF Done:  E(RB3LYP) =  -861.322089630     A.U. after   12 cycles
 SCF Done:  E(RB3LYP) =  -861.322112913     A.U. after   11 cycles
 SCF Done:  E(RB3LYP) =  -861.322058242     A.U. after   12 cycles
 SCF Done:  E(RB3LYP) =  -861.322108704     A.U. after   12 cycles
 SCF Done:  E(RB3LYP) =  -861.322044516     A.U. after   13 cycles
 SCF Done:  E(RB3LYP) =  -861.322110727     A.U. after   11 cycles
 SCF Done:  E(RB3LYP) =  -861.322117292     A.U. after   11 cycles
 SCF Done:  E(RB3LYP) =  -861.322118137     A.U. after   11 cycles
 SCF Done:  E(RB3LYP) =  -861.322118449     A.U. after   10 cycles
 SCF Done:  E(RB3LYP) =  -861.322118275     A.U. after    8 cycles
 Optimization completed.
    -- Stationary point found.

                         Standard orientation:
 ---------------------------------------------------------------------
 Center     Atomic      Atomic             Coordinates (Angstroms)
 Number     Number       Type             X           Y           Z
 ---------------------------------------------------------------------
      1          6           0       -2.563470    0.719879   -0.610803
      2          6           0       -1.566234   -0.267827   -1.093216
      3          6           0       -0.290590    0.245540   -0.821006
      4          6           0       -0.477318    1.574334   -0.166277
      5          1           0       -1.820092   -0.954471   -1.887086
      6          1           0        0.601901    0.053869   -1.400030
      7          6           0       -2.460387    2.902056    0.652089
      8          1           0       -1.733754    3.360045    1.323944
      9          1           0       -2.757759    3.630781   -0.108664
     10          1           0       -3.344733    2.589998    1.209849
     11          7           0       -1.846662    1.734989    0.041070
     12          8           0        0.377920    2.388699    0.162947
     13          8           0       -3.782544    0.706032   -0.720460
     14          6           0       -0.890465   -2.649259    0.320085
     15          1           0       -0.960330   -3.622897   -0.162125
     16          6           0        0.388975   -2.124428    0.542638
     17          1           0        1.245499   -2.700822    0.202925
     18          6           0       -2.062019   -1.912128    0.471795
     19          1           0       -2.066804   -1.092889    1.186903
     20          6           0       -3.414345   -2.456622    0.116284
     21          1           0       -4.062607   -1.664258   -0.270342
     22          1           0       -3.344819   -3.256191   -0.627490
     23          1           0       -3.901973   -2.863237    1.012449
     24          6           0        0.602849   -0.802462    0.930307
     25          1           0       -0.127214   -0.317740    1.573711
     26          6           0        1.979206   -0.213186    1.050959
     27          1           0        2.443133   -0.513327    2.000269
     28          1           0        1.912099    0.876288    1.019056
     29          6           0        3.958323   -0.127389   -0.388332
     30          6           0        4.391081    1.112758    0.358066
     31          1           0        4.421160    0.939385    1.437881
     32          1           0        5.380884    1.398253    0.004779
     33          1           0        3.689569    1.932906    0.171599
     34          8           0        2.782278   -0.711734   -0.042157
     35          8           0        4.594700   -0.626525   -1.294160
 ---------------------------------------------------------------------

 The electronic state is 1-A.
 Alpha  occ. eigenvalues --  -19.21011 -19.16006 -19.15707 -19.15209 -14.39516
 Alpha  occ. eigenvalues --  -10.33530 -10.31992 -10.31695 -10.26593 -10.23354
 Alpha  occ. eigenvalues --  -10.23227 -10.23148 -10.22533 -10.22109 -10.21167
 Alpha  occ. eigenvalues --  -10.20974 -10.20798 -10.19264  -1.11376  -1.07903
 Alpha  occ. eigenvalues --   -1.05903  -1.03186  -0.96856  -0.85278  -0.82204
 Alpha  occ. eigenvalues --   -0.80037  -0.76033  -0.74419  -0.71595  -0.68891
 Alpha  occ. eigenvalues --   -0.67147  -0.62787  -0.61327  -0.59000  -0.56131
 Alpha  occ. eigenvalues --   -0.54149  -0.51549  -0.51278  -0.50700  -0.49642
 Alpha  occ. eigenvalues --   -0.49446  -0.47372  -0.47094  -0.45903  -0.45165
 Alpha  occ. eigenvalues --   -0.44809  -0.43987  -0.43419  -0.43092  -0.42024
 Alpha  occ. eigenvalues --   -0.41548  -0.41195  -0.40830  -0.40292  -0.39597
 Alpha  occ. eigenvalues --   -0.39328  -0.37682  -0.37077  -0.35929  -0.35560
 Alpha  occ. eigenvalues --   -0.31418  -0.30436  -0.28881  -0.28833  -0.28035
 Alpha  occ. eigenvalues --   -0.25915  -0.24677
 Alpha virt. eigenvalues --   -0.08546  -0.05608  -0.00997  -0.00331   0.00540
 Alpha virt. eigenvalues --    0.00844   0.01390   0.01813   0.02580   0.02753
 Alpha virt. eigenvalues --    0.03232   0.03863   0.04186   0.04862   0.05312

 Mulliken charges:
               1
     1  C    0.115982
     2  C   -0.020789
     3  C   -0.111994
     4  C    0.013264
     5  H    0.173733
     6  H    0.189294
     7  C   -0.210236
     8  H    0.174831
     9  H    0.169345
    10  H    0.172639
    11  N   -0.024024
    12  O   -0.514155
    13  O   -0.521487
    14  C   -0.256388
    15  H    0.136130
    16  C   -0.009770
    17  H    0.155556
    18  C    0.461324
    19  H    0.141322
    20  C   -0.699014
    21  H    0.190133
    22  H    0.152567
    23  H    0.166603
    24  C    0.334538
    25  H    0.155969
    26  C   -0.640931
    27  H    0.166971
    28  H    0.178771
    29  C    0.449049
    30  C   -0.431724
    31  H    0.181267
    32  H    0.189983
    33  H    0.200029
    34  O   -0.369029
    35  O   -0.459758
 Sum of Mulliken charges =   0.00000

 Dipole moment (field-independent basis, Debye):
    X=             -1.5306    Y=             -0.4413    Z=              4.4122  Tot=              4.6909
 Quadrupole moment (field-independent basis, Debye-Ang):
   XX=           -130.6692   YY=           -104.9800   ZZ=           -107.1343
   XY=             10.5031   XZ=              9.9702   YZ=              1.0398

 Normal termination of Gaussian 09 at Thu Aug 27 23:29:57 2020.
