 Gaussian 09, Revision D.01,
 Gaussian 09:  ES64L-G09RevD.01 24-Apr-2013

 ----------------------------------------------------------------------
 # opt freq b3lyp/6-31+g(d,p) scrf=(cpcm,solvent=toluene) geom=connecti
 vity empiricaldispersion=gd3
 ----------------------------------------------------------------------

 -------------------
 Title Card Required
 -------------------
 Symbolic Z-matrix:
 Charge =  0 Multiplicity = 1

 SCF Done:  E(RB3LYP) =  -398.779036503     A.U. after   13 cycles
 SCF Done:  E(RB3LYP) =  -398.782917669     A.U. after   11 cycles
 SCF Done:  E(RB3LYP) =  -398.783172526     A.U. after   11 cycles
 SCF Done:  E(RB3LYP) =  -398.782842202     A.U. after   11 cycles
 SCF Done:  E(RB3LYP) =  -398.783204615     A.U. after    7 cycles
 SCF Done:  E(RB3LYP) =  -398.783210298     A.U. after    8 cycles
 SCF Done:  E(RB3LYP) =  -398.783210595     A.U. after    8 cycles
 SCF Done:  E(RB3LYP) =  -398.783210674     A.U. after    8 cycles
 Optimization completed.
    -- Stationary point found.
 Normal termination of Gaussian 09 at Thu Aug 27 16:53:25 2020.

 ----------------------------------------------------------------------
 #N Geom=AllCheck Guess=TCheck SCRF=Check GenChk RB3LYP/6-31+G(d,p) Fre
 q
 ----------------------------------------------------------------------

 Structure from the checkpoint file:  "b3lyp_dienophile_pm6_cpcmtoluene_1.chk"
 -------------------
 Title Card Required
 -------------------
 Charge =  0 Multiplicity = 1

                         Standard orientation:
 ---------------------------------------------------------------------
 Center     Atomic      Atomic             Coordinates (Angstroms)
 Number     Number       Type             X           Y           Z
 ---------------------------------------------------------------------
      1          6           0       -1.141850   -0.212710   -0.002013
      2          6           0       -0.656819   -1.634831    0.002876
      3          6           0        0.680540   -1.625290    0.002979
      4          6           0        1.146265   -0.196654   -0.001263
      5          1           0       -1.339568   -2.473959    0.004890
      6          1           0        1.375350   -2.454458    0.005107
      7          6           0       -0.018795    2.047804    0.005612
      8          1           0        0.933539    2.404230   -0.388474
      9          1           0       -0.839694    2.402626   -0.619495
     10          1           0       -0.153367    2.422862    1.024496
     11          7           0       -0.003930    0.593086   -0.013023
     12          8           0        2.291578    0.219644    0.000790
     13          8           0       -2.292178    0.190003    0.001147
 ---------------------------------------------------------------------

 SCF Done:  E(RB3LYP) =  -398.783210674     A.U. after    1 cycles

 The electronic state is 1-A.
 Alpha  occ. eigenvalues --  -19.17320 -19.17305 -14.40272 -10.33110 -10.33059
 Alpha  occ. eigenvalues --  -10.24058 -10.23971 -10.23573  -1.09173  -1.07313
 Alpha  occ. eigenvalues --   -0.98088  -0.84593  -0.72773  -0.69308  -0.62249
 Alpha  occ. eigenvalues --   -0.57473  -0.51396  -0.50115  -0.48193  -0.46719
 Alpha  occ. eigenvalues --   -0.45831  -0.43955  -0.42693  -0.41572  -0.41241
 Alpha  occ. eigenvalues --   -0.31928  -0.31538  -0.28895  -0.28875
 Alpha virt. eigenvalues --   -0.11047   0.00334   0.01605   0.02917   0.03367
 Alpha virt. eigenvalues --    0.03848   0.04153   0.04241   0.05514   0.06638
 Alpha virt. eigenvalues --    0.07720   0.08345   0.08603   0.09353   0.10087

 Mulliken charges:
               1
     1  C    0.309721
     2  C    0.017359
     3  C    0.017683
     4  C    0.302129
     5  H    0.175113
     6  H    0.175002
     7  C   -0.267834
     8  H    0.179769
     9  H    0.177125
    10  H    0.172552
    11  N   -0.169557
    12  O   -0.545062
    13  O   -0.543999
 Sum of Mulliken charges =   0.00000

 Dipole moment (field-independent basis, Debye):
    X=              0.0286    Y=             -1.3892    Z=             -0.0138  Tot=              1.3896
 Quadrupole moment (field-independent basis, Debye-Ang):
   XX=            -62.7799   YY=            -35.7857   ZZ=            -45.6500
   XY=             -0.1282   XZ=              0.0074   YZ=             -0.0877

  Exact polarizability: 114.313  -0.095  79.672   0.001   0.565  47.417
 Approx polarizability: 176.416   0.188  89.881  -0.006   0.569  59.779

                      1                      2                      3
                      A                      A                      A
 Frequencies --     38.7003               144.7151               168.3431
 Red. masses --      1.0303                 8.0984                 3.9730
 Frc consts  --      0.0009                 0.0999                 0.0663
 IR Inten    --      0.2424                19.9112                 2.1746

                      4                      5                      6
                      A                      A                      A
 Frequencies --    277.6224               297.7325               380.2282
 Red. masses --      3.1899                 4.0976                 9.5434
 Frc consts  --      0.1449                 0.2140                 0.8129
 IR Inten    --      5.3431                 0.0040                28.2539

                      7                      8                      9
                      A                      A                      A
 Frequencies --    568.4149               608.2064               625.4724
 Red. masses --      3.9770                 8.5913                 2.1142
 Frc consts  --      0.7571                 1.8724                 0.4873
 IR Inten    --      0.1948                 4.0425                 0.6141

                     10                     11                     12
                      A                      A                      A
 Frequencies --    703.9712               735.5059               767.3460
 Red. masses --      7.8612                 5.6121                 8.0823
 Frc consts  --      2.2954                 1.7887                 2.8039
 IR Inten    --     65.4789                 0.3631                 0.1137

                     13                     14                     15
                      A                      A                      A
 Frequencies --    831.0092               956.9210               968.6638
 Red. masses --      2.1215                 2.2162                 1.2962
 Frc consts  --      0.8632                 1.1957                 0.7166
 IR Inten    --     89.7680                53.0662                 0.0431

                     16                     17                     18
                      A                      A                      A
 Frequencies --   1051.8724              1113.1677              1141.1750
 Red. masses --      1.6205                 2.6546                 2.3213
 Frc consts  --      1.0564                 1.9381                 1.7811
 IR Inten    --     18.5081                53.5354                 0.7672

                     19                     20                     21
                      A                      A                      A
 Frequencies --   1151.5783              1281.5065              1326.9411
 Red. masses --      1.3224                 2.8153                 1.7584
 Frc consts  --      1.0333                 2.7241                 1.8242
 IR Inten    --      6.4132                61.8033                 2.1007

                     22                     23                     24
                      A                      A                      A
 Frequencies --   1417.8573              1466.0187              1492.6593
 Red. masses --      2.7455                 1.4136                 1.1991
 Frc consts  --      3.2519                 1.7900                 1.5741
 IR Inten    --    180.1074               115.4613                32.5807

                     25                     26                     27
                      A                      A                      A
 Frequencies --   1510.3728              1648.1813              1750.1028
 Red. masses --      1.0545                 6.7392                12.2129
 Frc consts  --      1.4174                10.7862                22.0392
 IR Inten    --     18.6857                 1.7589              1202.1128

                     28                     29                     30
                      A                      A                      A
 Frequencies --   1822.6818              3060.4822              3137.5717
 Red. masses --     11.5511                 1.0357                 1.1013
 Frc consts  --     22.6097                 5.7154                 6.3878
 IR Inten    --     11.9363                38.1703                13.6045

                     31                     32                     33
                      A                      A                      A
 Frequencies --   3171.0640              3251.5749              3271.4659
 Red. masses --      1.1060                 1.0897                 1.1092
 Frc consts  --      6.5527                 6.7882                 6.9943
 IR Inten    --      1.8172                 0.0318                 0.0579

 - Thermochemistry -
 -------------------
 Temperature   298.150 Kelvin.  Pressure   1.00000 Atm.
 Atom     1 has atomic number  6 and mass  12.00000

 Molecular mass:   111.03203 amu.
 Principal axes and moments of inertia in atomic units:
                           1         2         3
     Eigenvalues --   545.39496 775.324581309.29379
           X            0.99999  -0.00318   0.00000
           Y            0.00318   0.99999   0.00024
           Z            0.00000  -0.00024   1.00000
 This molecule is an asymmetric top.
 Rotational symmetry number  1.
 Warning -- assumption of classical behavior for rotation
           may cause significant error
 Rotational temperatures (Kelvin)      0.15881     0.11171     0.06615
 Rotational constants (GHZ):           3.30905     2.32772     1.37841
 Zero-point vibrational energy     252047.9 (Joules/Mol)
                                   60.24090 (Kcal/Mol)
 Warning -- explicit consideration of   8 degrees of freedom as
           vibrations may cause significant error
 Vibrational temperatures:     55.68   208.21   242.21   399.44   428.37
          (Kelvin)            547.06   817.82   875.07   899.91  1012.86
                             1058.23  1104.04  1195.64  1376.79  1393.69
                             1513.41  1601.60  1641.89  1656.86  1843.80
                             1909.17  2039.98  2109.27  2147.60  2173.09
                             2371.36  2518.00  2622.43  4403.35  4514.26
                             4562.45  4678.29  4706.90

 Zero-point correction=                           0.096000 (Hartree/Particle)
 Thermal correction to Energy=                    0.103236
 Thermal correction to Enthalpy=                  0.104180
 Thermal correction to Gibbs Free Energy=         0.063658
 Sum of electronic and zero-point Energies=           -398.687211
 Sum of electronic and thermal Energies=              -398.679975
 Sum of electronic and thermal Enthalpies=            -398.679030
 Sum of electronic and thermal Free Energies=         -398.719552

                     E (Thermal)             CV                S
                      KCal/Mol        Cal/Mol-Kelvin    Cal/Mol-Kelvin
 Total                   64.782             25.264             85.286
 Electronic               0.000              0.000              0.000
 Translational            0.889              2.981             40.030
 Rotational               0.889              2.981             27.806
 Vibrational             63.004             19.302             17.450
 Vibration     1          0.594              1.981              5.325
 Vibration     2          0.616              1.908              2.741
 Vibration     3          0.625              1.881              2.454
 Vibration     4          0.679              1.715              1.548
 Vibration     5          0.691              1.678              1.430
 Vibration     6          0.750              1.512              1.038
 Vibration     7          0.924              1.100              0.507
 Vibration     8          0.967              1.014              0.436

 Normal termination of Gaussian 09 at Thu Aug 27 16:55:16 2020.
