 Gaussian 09, Revision D.01,
 Gaussian 09:  ES64L-G09RevD.01 24-Apr-2013

 ----------------------------------------------------------------------
 # opt freq b3lyp/6-31+g(d,p) scrf=(cpcm,solvent=toluene) geom=connecti
 vity empiricaldispersion=gd3
 ----------------------------------------------------------------------

 -------------------
 Title Card Required
 -------------------
 Symbolic Z-matrix:
 Charge =  0 Multiplicity = 1

 SCF Done:  E(RB3LYP) =  -462.541908739     A.U. after   14 cycles
 SCF Done:  E(RB3LYP) =  -462.546408316     A.U. after   12 cycles
 SCF Done:  E(RB3LYP) =  -462.547152923     A.U. after   11 cycles
 SCF Done:  E(RB3LYP) =  -462.547241256     A.U. after   11 cycles
 SCF Done:  E(RB3LYP) =  -462.547262964     A.U. after   10 cycles
 SCF Done:  E(RB3LYP) =  -462.547256897     A.U. after   10 cycles
 SCF Done:  E(RB3LYP) =  -462.547275639     A.U. after   10 cycles
 SCF Done:  E(RB3LYP) =  -462.547276794     A.U. after   10 cycles
 SCF Done:  E(RB3LYP) =  -462.547276758     A.U. after    9 cycles
 SCF Done:  E(RB3LYP) =  -462.547276757     A.U. after    7 cycles
 SCF Done:  E(RB3LYP) =  -462.547276837     A.U. after    8 cycles
 SCF Done:  E(RB3LYP) =  -462.547277010     A.U. after    8 cycles
 SCF Done:  E(RB3LYP) =  -462.547277059     A.U. after    8 cycles
 Optimization completed.
    -- Stationary point found.
 Normal termination of Gaussian 09 at Thu Aug 27 16:42:55 2020.

 ----------------------------------------------------------------------
 #N Geom=AllCheck Guess=TCheck SCRF=Check GenChk RB3LYP/6-31+G(d,p) Fre
 q
 ----------------------------------------------------------------------

 Structure from the checkpoint file:  "b3lyp_diene_pm6_cpcmtoluene.chk"
 -------------------
 Title Card Required
 -------------------
 Charge =  0 Multiplicity = 1

                         Standard orientation:
 ---------------------------------------------------------------------
 Center     Atomic      Atomic             Coordinates (Angstroms)
 Number     Number       Type             X           Y           Z
 ---------------------------------------------------------------------
      1          6           0       -2.609988    0.634512   -0.262326
      2          1           0       -2.939204    1.552385   -0.751393
      3          6           0       -1.155527    0.433658   -0.201666
      4          1           0       -0.544606    1.333729   -0.184333
      5          6           0       -3.543413   -0.183690    0.254548
      6          1           0       -3.220846   -1.071592    0.799872
      7          6           0       -5.025384    0.033349    0.158343
      8          1           0       -5.482197    0.090899    1.154809
      9          1           0       -5.265347    0.953842   -0.383582
     10          1           0       -5.511471   -0.803885   -0.359843
     11          6           0       -0.534254   -0.756286   -0.189087
     12          1           0       -1.109924   -1.678147   -0.262179
     13          6           0        0.945356   -0.975192   -0.092536
     14          1           0        1.303953   -1.516511   -0.978166
     15          1           0        1.175219   -1.589626    0.788804
     16          6           0        2.970539    0.384425    0.078433
     17          6           0        3.781022   -0.891050    0.032805
     18          1           0        3.618103   -1.421408   -0.910843
     19          1           0        4.835002   -0.632664    0.123851
     20          1           0        3.499452   -1.566939    0.846038
     21          8           0        1.619313    0.293779    0.011111
     22          8           0        3.464657    1.490166    0.169624
 ---------------------------------------------------------------------

 SCF Done:  E(RB3LYP) =  -462.547277059     A.U. after    1 cycles

 The electronic state is 1-A.
 Alpha  occ. eigenvalues --  -19.20775 -19.15047 -10.33432 -10.26658 -10.20948
 Alpha  occ. eigenvalues --  -10.20357 -10.19923 -10.19878 -10.19456 -10.18819
 Alpha  occ. eigenvalues --   -1.11245  -1.03043  -0.82390  -0.78753  -0.75996
 Alpha  occ. eigenvalues --   -0.73135  -0.66964  -0.61192  -0.57974  -0.52986
 Alpha  occ. eigenvalues --   -0.51213  -0.50554  -0.49228  -0.46662  -0.44552
 Alpha  occ. eigenvalues --   -0.44401  -0.42001  -0.41665  -0.41263  -0.39622
 Alpha  occ. eigenvalues --   -0.39535  -0.36329  -0.35817  -0.35117  -0.31580
 Alpha  occ. eigenvalues --   -0.30332  -0.28679  -0.23054
 Alpha virt. eigenvalues --   -0.03500  -0.00733  -0.00012   0.01427   0.01734
 Alpha virt. eigenvalues --    0.03017   0.03299   0.03842   0.04499   0.04966
 Alpha virt. eigenvalues --    0.05504   0.06440   0.06672   0.07438   0.07609

 Mulliken charges:
               1
     1  C   -0.502235
     2  H    0.127076
     3  C    0.191571
     4  H    0.153002
     5  C    0.168482
     6  H    0.127413
     7  C   -0.765292
     8  H    0.160423
     9  H    0.155463
    10  H    0.160548
    11  C    0.061512
    12  H    0.135030
    13  C   -0.292106
    14  H    0.155877
    15  H    0.155850
    16  C    0.511378
    17  C   -0.412525
    18  H    0.182646
    19  H    0.190239
    20  H    0.180236
    21  O   -0.362796
    22  O   -0.481793
 Sum of Mulliken charges =   0.00000

 Dipole moment (field-independent basis, Debye):
    X=             -1.6969    Y=             -5.3317    Z=             -0.2883  Tot=              5.6027
 Quadrupole moment (field-independent basis, Debye-Ang):
   XX=            -59.6794   YY=            -62.5713   ZZ=            -62.1808
   XY=            -14.4972   XZ=             -1.4561   YZ=             -1.7866

  Exact polarizability: 172.444  -0.289 118.697  -4.777  -3.041  84.232
 Approx polarizability: 181.777   3.233 157.747  -8.214  -5.401 106.017

                      1                      2                      3
                      A                      A                      A
 Frequencies --     33.3398                45.2049                80.8390
 Red. masses --      3.3584                 2.8101                 3.7544
 Frc consts  --      0.0022                 0.0034                 0.0145
 IR Inten    --      2.2073                 1.3108                 2.3624

                      4                      5                      6
                      A                      A                      A
 Frequencies --    130.6581               137.2666               158.1433
 Red. masses --      5.7720                 1.7153                 2.4212
 Frc consts  --      0.0581                 0.0190                 0.0357
 IR Inten    --      0.0267                 3.2913                 1.1558

                      7                      8                      9
                      A                      A                      A
 Frequencies --    166.2811               196.8692               221.6242
 Red. masses --      1.3346                 1.4037                 1.6117
 Frc consts  --      0.0217                 0.0321                 0.0466
 IR Inten    --      0.9275                 6.7110                 1.0024

                     10                     11                     12
                      A                      A                      A
 Frequencies --    250.7593               340.4006               367.6069
 Red. masses --      3.9690                 2.5984                 3.0998
 Frc consts  --      0.1470                 0.1774                 0.2468
 IR Inten    --      0.7385                 1.0810                 4.1757

                     13                     14                     15
                      A                      A                      A
 Frequencies --    460.8274               524.6893               576.7796
 Red. masses --      3.8033                 4.3652                 2.5460
 Frc consts  --      0.4759                 0.7080                 0.4990
 IR Inten    --      3.7681                 9.0494                 8.6447

                     16                     17                     18
                      A                      A                      A
 Frequencies --    590.7450               703.9577               772.4081
 Red. masses --      5.0373                 2.8906                 1.7275
 Frc consts  --      1.0357                 0.8440                 0.6072
 IR Inten    --     11.2888                10.6494                 3.4141

                     19                     20                     21
                      A                      A                      A
 Frequencies --    831.5969               848.1914               918.8161
 Red. masses --      2.6687                 2.3549                 1.8008
 Frc consts  --      1.0873                 0.9982                 0.8957
 IR Inten    --      2.8493                 0.5954                 9.5896

                     22                     23                     24
                      A                      A                      A
 Frequencies --    985.7814               993.1651              1002.1354
 Red. masses --      1.8032                 1.3839                 1.1004
 Frc consts  --      1.0324                 0.8043                 0.6511
 IR Inten    --     32.4152                23.3773                86.9137

                     25                     26                     27
                      A                      A                      A
 Frequencies --   1024.3397              1030.4506              1058.7357
 Red. masses --      1.6688                 1.7523                 1.7870
 Frc consts  --      1.0316                 1.0963                 1.1802
 IR Inten    --     58.9635                 6.0789                11.0389

                     28                     29                     30
                      A                      A                      A
 Frequencies --   1062.9494              1083.5784              1118.6921
 Red. masses --      1.5470                 2.7137                 3.0545
 Frc consts  --      1.0298                 1.8773                 2.2522
 IR Inten    --      1.7128                46.2326                46.0655

                     31                     32                     33
                      A                      A                      A
 Frequencies --   1128.4148              1259.0298              1273.9773
 Red. masses --      2.4542                 3.7749                 1.0653
 Frc consts  --      1.8412                 3.5255                 1.0187
 IR Inten    --     13.1751               665.2202                 3.7570

                     34                     35                     36
                      A                      A                      A
 Frequencies --   1312.9171              1320.1435              1343.1606
 Red. masses --      1.4867                 1.2954                 1.2858
 Frc consts  --      1.5099                 1.3301                 1.3668
 IR Inten    --     25.0685                 4.5665                 3.9312

                     37                     38                     39
                      A                      A                      A
 Frequencies --   1356.7689              1404.4942              1414.5429
 Red. masses --      1.3203                 1.3391                 1.2673
 Frc consts  --      1.4320                 1.5563                 1.4940
 IR Inten    --      8.8582                66.4599                 4.4981

                     40                     41                     42
                      A                      A                      A
 Frequencies --   1420.0622              1469.3930              1474.2820
 Red. masses --      1.3178                 1.0650                 1.0447
 Frc consts  --      1.5657                 1.3548                 1.3378
 IR Inten    --     35.0916                31.6102                10.5757

                     43                     44                     45
                      A                      A                      A
 Frequencies --   1486.7122              1487.9982              1493.5308
 Red. masses --      1.0453                 1.0595                 1.0796
 Frc consts  --      1.3613                 1.3822                 1.4189
 IR Inten    --     15.9969                17.2206                 3.2244

                     46                     47                     48
                      A                      A                      A
 Frequencies --   1704.5166              1721.8293              1788.8845
 Red. masses --      5.9808                 5.0159                11.0859
 Frc consts  --     10.2379                 8.7615                20.9020
 IR Inten    --      9.4402                 3.3024               530.0917

                     49                     50                     51
                      A                      A                      A
 Frequencies --   3013.8662              3017.7360              3051.8301
 Red. masses --      1.0560                 1.0373                 1.1065
 Frc consts  --      5.6513                 5.5655                 6.0721
 IR Inten    --     44.0939                48.8164                23.1496

                     52                     53                     54
                      A                      A                      A
 Frequencies --   3059.0959              3065.8587              3106.0762
 Red. masses --      1.0383                 1.0997                 1.1000
 Frc consts  --      5.7248                 6.0903                 6.2524
 IR Inten    --      3.4663                25.1536                18.1312

                     55                     56                     57
                      A                      A                      A
 Frequencies --   3124.4111              3133.1462              3143.3680
 Red. masses --      1.1007                 1.0900                 1.0871
 Frc consts  --      6.3310                 6.3043                 6.3286
 IR Inten    --      6.1001                10.5312                53.1481

                     58                     59                     60
                      A                      A                      A
 Frequencies --   3160.4833              3176.1513              3178.7373
 Red. masses --      1.0898                 1.0879                 1.1023
 Frc consts  --      6.4138                 6.4658                 6.5624
 IR Inten    --     11.0846                11.6957                 6.9149

 - Thermochemistry -
 -------------------
 Temperature   298.150 Kelvin.  Pressure   1.00000 Atm.
 Atom     1 has atomic number  6 and mass  12.00000

 Molecular mass:   140.08373 amu.
 Principal axes and moments of inertia in atomic units:
                           1         2         3
     Eigenvalues --   366.252464456.513064754.62185
           X            0.99987  -0.01575  -0.00163
           Y            0.01571   0.99969  -0.01949
           Z            0.00194   0.01946   0.99981
 This molecule is an asymmetric top.
 Rotational symmetry number  1.
 Rotational temperatures (Kelvin)      0.23649     0.01944     0.01822
 Rotational constants (GHZ):           4.92759     0.40497     0.37958
 Zero-point vibrational energy     483340.7 (Joules/Mol)
                                  115.52119 (Kcal/Mol)
 Warning -- explicit consideration of  16 degrees of freedom as
           vibrations may cause significant error
 Vibrational temperatures:     47.97    65.04   116.31   187.99   197.50
          (Kelvin)            227.53   239.24   283.25   318.87   360.79
                              489.76   528.90   663.03   754.91   829.86
                              849.95  1012.84  1111.32  1196.48  1220.36
                             1321.97  1418.32  1428.94  1441.85  1473.79
                             1482.59  1523.28  1529.35  1559.03  1609.55
                             1623.54  1811.46  1832.97  1888.99  1899.39
                             1932.51  1952.09  2020.75  2035.21  2043.15
                             2114.13  2121.16  2139.04  2140.89  2148.86
                             2452.42  2477.33  2573.80  4336.28  4341.84
                             4390.90  4401.35  4411.08  4468.95  4495.33
                             4507.89  4522.60  4547.22  4569.77  4573.49

 Zero-point correction=                           0.184095 (Hartree/Particle)
 Thermal correction to Energy=                    0.195906
 Thermal correction to Enthalpy=                  0.196850
 Thermal correction to Gibbs Free Energy=         0.145050
 Sum of electronic and zero-point Energies=           -462.363182
 Sum of electronic and thermal Energies=              -462.351371
 Sum of electronic and thermal Enthalpies=            -462.350427
 Sum of electronic and thermal Free Energies=         -462.402227

                     E (Thermal)             CV                S
                      KCal/Mol        Cal/Mol-Kelvin    Cal/Mol-Kelvin
 Total                  122.933             40.840            109.024
 Electronic               0.000              0.000              0.000
 Translational            0.889              2.981             40.723
 Rotational               0.889              2.981             30.430
 Vibrational            121.156             34.878             37.871
 Vibration     1          0.594              1.983              5.620
 Vibration     2          0.595              1.979              5.017
 Vibration     3          0.600              1.962              3.870
 Vibration     4          0.612              1.923              2.936
 Vibration     5          0.614              1.916              2.842
 Vibration     6          0.621              1.894              2.572
 Vibration     7          0.624              1.884              2.477
 Vibration     8          0.636              1.844              2.162
 Vibration     9          0.648              1.808              1.946
 Vibration    10          0.663              1.761              1.725
 Vibration    11          0.720              1.595              1.210
 Vibration    12          0.740              1.539              1.090
 Vibration    13          0.819              1.337              0.764
 Vibration    14          0.880              1.195              0.599
 Vibration    15          0.933              1.081              0.491
 Vibration    16          0.948              1.052              0.466

 Optimization completed.
    -- Stationary point found.
 Normal termination of Gaussian 09 at Thu Aug 27 16:47:32 2020.
