 Gaussian 09, Revision D.01,
 Gaussian 09:  ES64L-G09RevD.01 24-Apr-2013

 ----------------------------------------------------------------------
 # opt freq b3lyp/6-31+g(d,p) scrf=(cpcm,solvent=toluene) geom=connecti
 vity empiricaldispersion=gd3
 ----------------------------------------------------------------------

 -------------------
 Title Card Required
 -------------------
 Symbolic Z-matrix:
 Charge =  0 Multiplicity = 1

 SCF Done:  E(RB3LYP) =  -861.390738418     A.U. after   15 cycles
 SCF Done:  E(RB3LYP) =  -861.401103035     A.U. after   14 cycles
 SCF Done:  E(RB3LYP) =  -861.403366419     A.U. after   14 cycles
 SCF Done:  E(RB3LYP) =  -861.404204993     A.U. after   13 cycles
 SCF Done:  E(RB3LYP) =  -861.403933137     A.U. after   13 cycles
 SCF Done:  E(RB3LYP) =  -861.404453068     A.U. after   12 cycles
 SCF Done:  E(RB3LYP) =  -861.404470615     A.U. after   11 cycles
 SCF Done:  E(RB3LYP) =  -861.404465303     A.U. after   10 cycles
 SCF Done:  E(RB3LYP) =  -861.404482759     A.U. after   10 cycles
 SCF Done:  E(RB3LYP) =  -861.404483837     A.U. after    9 cycles
 SCF Done:  E(RB3LYP) =  -861.404787034     A.U. after    9 cycles
 SCF Done:  E(RB3LYP) =  -861.404787189     A.U. after    8 cycles
 SCF Done:  E(RB3LYP) =  -861.404787242     A.U. after    8 cycles
 SCF Done:  E(RB3LYP) =  -861.404787287     A.U. after    8 cycles
 SCF Done:  E(RB3LYP) =  -861.404787456     A.U. after    8 cycles
 SCF Done:  E(RB3LYP) =  -861.404787823     A.U. after   10 cycles
 SCF Done:  E(RB3LYP) =  -861.404788562     A.U. after    9 cycles
 SCF Done:  E(RB3LYP) =  -861.404788744     A.U. after    9 cycles
 SCF Done:  E(RB3LYP) =  -861.404788716     A.U. after    8 cycles
 Optimization completed on the basis of negligible forces.
    -- Stationary point found.
 Normal termination of Gaussian 09 at Thu Aug 27 18:49:55 2020.

 ----------------------------------------------------------------------
 #N Geom=AllCheck Guess=TCheck SCRF=Check GenChk RB3LYP/6-31+G(d,p) Fre
 q
 ----------------------------------------------------------------------

 Structure from the checkpoint file:  "b3lyp_cyclohexene_pm6_cpcmtoluene_2.chk"
 -------------------
 Title Card Required
 -------------------
 Charge =  0 Multiplicity = 1

                         Standard orientation:
 ---------------------------------------------------------------------
 Center     Atomic      Atomic             Coordinates (Angstroms)
 Number     Number       Type             X           Y           Z
 ---------------------------------------------------------------------
      1          6           0       -2.886859    0.185090   -0.185648
      2          6           0       -1.588045    0.829173   -0.667371
      3          6           0       -0.581550   -0.350743   -0.737364
      4          6           0       -1.360855   -1.551412   -0.198183
      5          1           0       -1.799199    1.212868   -1.670780
      6          1           0       -0.366681   -0.597215   -1.784281
      7          6           0       -3.700343   -2.073987    0.528380
      8          1           0       -3.720701   -2.070285    1.621914
      9          1           0       -4.666776   -1.741493    0.148645
     10          1           0       -3.471927   -3.079800    0.175202
     11          7           0       -2.671639   -1.166270    0.037028
     12          8           0       -0.931487   -2.676763   -0.012411
     13          8           0       -3.956061    0.746078   -0.011016
     14          6           0        0.759199   -0.202002    0.022179
     15          1           0        1.082706   -1.209307    0.303687
     16          6           0       -1.222700    2.034334    0.248391
     17          1           0       -2.161144    2.388624    0.690115
     18          6           0       -0.289279    1.632276    1.364952
     19          1           0       -0.335115    2.226773    2.275255
     20          6           0        0.604494    0.641489    1.265322
     21          1           0        1.278470    0.433281    2.091839
     22          6           0       -0.646313    3.218744   -0.556558
     23          1           0       -1.375708    3.573628   -1.292908
     24          1           0       -0.401919    4.052037    0.109981
     25          1           0        0.268893    2.937703   -1.085638
     26          6           0        1.844127    0.346328   -0.922376
     27          1           0        1.994532   -0.337009   -1.762808
     28          1           0        1.588778    1.338723   -1.294621
     29          6           0        3.894854   -0.550840   -0.075134
     30          6           0        5.148146   -0.198728    0.682212
     31          1           0        4.884103    0.135582    1.690382
     32          1           0        5.797500   -1.071719    0.740313
     33          1           0        5.667069    0.626773    0.186799
     34          8           0        3.610625   -1.655650   -0.497854
     35          8           0        3.100590    0.534634   -0.230606
 ---------------------------------------------------------------------

 SCF Done:  E(RB3LYP) =  -861.404788716     A.U. after    1 cycles

 The electronic state is 1-A.
 Alpha  occ. eigenvalues --  -19.21004 -19.15895 -19.15878 -19.15711 -14.40822
 Alpha  occ. eigenvalues --  -10.33406 -10.31963 -10.31898 -10.25703 -10.23322
 Alpha  occ. eigenvalues --  -10.22795 -10.22446 -10.21659 -10.21541 -10.20350
 Alpha  occ. eigenvalues --  -10.20099 -10.19981 -10.19127  -1.11717  -1.08422
 Alpha  occ. eigenvalues --   -1.06327  -1.03102  -0.97322  -0.87131  -0.80854
 Alpha  occ. eigenvalues --   -0.79890  -0.76932  -0.73651  -0.71374  -0.70130
 Alpha  occ. eigenvalues --   -0.66330  -0.62794  -0.62403  -0.57857  -0.56014
 Alpha  occ. eigenvalues --   -0.53040  -0.51659  -0.51090  -0.49902  -0.49429
 Alpha  occ. eigenvalues --   -0.48656  -0.48168  -0.47441  -0.45848  -0.45025
 Alpha  occ. eigenvalues --   -0.44453  -0.43716  -0.43242  -0.43040  -0.42155
 Alpha  occ. eigenvalues --   -0.41416  -0.41111  -0.40577  -0.39246  -0.38602
 Alpha  occ. eigenvalues --   -0.38447  -0.37273  -0.37007  -0.35325  -0.34492
 Alpha  occ. eigenvalues --   -0.32498  -0.31821  -0.30258  -0.29226  -0.29134
 Alpha  occ. eigenvalues --   -0.27484  -0.26267
 Alpha virt. eigenvalues --   -0.03788  -0.01175  -0.01032  -0.00515   0.00246
 Alpha virt. eigenvalues --    0.00870   0.01413   0.01843   0.02420   0.03046
 Alpha virt. eigenvalues --    0.03729   0.04210   0.04436   0.05167   0.05246

 Mulliken charges:
               1
     1  C    0.212104
     2  C    0.099441
     3  C   -0.498469
     4  C    0.160322
     5  H    0.173703
     6  H    0.176645
     7  C   -0.239394
     8  H    0.174237
     9  H    0.180335
    10  H    0.180954
    11  N   -0.106520
    12  O   -0.514418
    13  O   -0.523695
    14  C    0.209523
    15  H    0.189757
    16  C    0.082663
    17  H    0.163899
    18  C   -0.008326
    19  H    0.134738
    20  C   -0.245244
    21  H    0.134323
    22  C   -0.554232
    23  H    0.155682
    24  H    0.155267
    25  H    0.140305
    26  C   -0.167169
    27  H    0.169199
    28  H    0.143664
    29  C    0.490587
    30  C   -0.518982
    31  H    0.186785
    32  H    0.182870
    33  H    0.186295
    34  O   -0.455358
    35  O   -0.251492
 Sum of Mulliken charges =   0.00000

 Dipole moment (field-independent basis, Debye):
    X=              1.1167    Y=              3.4484    Z=             -0.0827  Tot=              3.6256
 Quadrupole moment (field-independent basis, Debye-Ang):
   XX=           -109.3402   YY=           -118.6464   ZZ=           -100.5601
   XY=             14.9612   XZ=              5.0269   YZ=             -2.3172

  Exact polarizability: 216.496 -17.429 206.144   1.516  -0.186 151.351
 Approx polarizability: 246.820 -36.095 265.176  -0.330   2.569 193.155

                      1                      2                      3
                      A                      A                      A
 Frequencies --     20.0779                30.1198                42.5736
 Red. masses --      8.2727                 4.1278                 1.4329
 Frc consts  --      0.0020                 0.0022                 0.0015
 IR Inten    --      0.3744                 1.2116                 2.5563

                      4                      5                      6
                      A                      A                      A
 Frequencies --     43.9441                56.1775                74.9523
 Red. masses --      1.1270                 4.3610                 2.1692
 Frc consts  --      0.0013                 0.0081                 0.0072
 IR Inten    --      0.7823                 0.3370                 1.8071

                      7                      8                      9
                      A                      A                      A
 Frequencies --     91.2780               108.9000               144.7360
 Red. masses --      3.1501                 4.7345                 4.9345
 Frc consts  --      0.0155                 0.0331                 0.0609
 IR Inten    --      2.0776                 5.1448                 4.4649

                     10                     11                     12
                      A                      A                      A
 Frequencies --    159.8693               193.2520               226.0870
 Red. masses --      4.8717                 2.1546                 2.6738
 Frc consts  --      0.0734                 0.0474                 0.0805
 IR Inten    --      8.9259                 1.9448                 0.7363

                     13                     14                     15
                      A                      A                      A
 Frequencies --    235.1474               247.6635               284.0583
 Red. masses --      2.5603                 2.9373                 2.4748
 Frc consts  --      0.0834                 0.1062                 0.1177
 IR Inten    --      0.9601                 4.8223                 2.4845

                     16                     17                     18
                      A                      A                      A
 Frequencies --    298.7802               314.1746               322.8785
 Red. masses --      3.0968                 3.8857                 3.0951
 Frc consts  --      0.1629                 0.2260                 0.1901
 IR Inten    --      4.2550                15.4843                 5.2926

                     19                     20                     21
                      A                      A                      A
 Frequencies --    398.7237               414.7747               448.7146
 Red. masses --      4.8588                 4.5802                 3.7562
 Frc consts  --      0.4551                 0.4643                 0.4456
 IR Inten    --     34.8185                 8.1530                10.8722

                     22                     23                     24
                      A                      A                      A
 Frequencies --    480.8002               527.9611               574.9948
 Red. masses --      4.0193                 4.3485                 3.1181
 Frc consts  --      0.5474                 0.7142                 0.6074
 IR Inten    --      4.0818                 5.4506                 1.0629

                     25                     26                     27
                      A                      A                      A
 Frequencies --    601.3526               605.7740               611.7147
 Red. masses --      3.4597                 4.5906                 4.5346
 Frc consts  --      0.7371                 0.9925                 0.9997
 IR Inten    --      6.0781                 7.8732                 2.5864

                     28                     29                     30
                      A                      A                      A
 Frequencies --    642.5613               649.7106               690.9623
 Red. masses --      4.9698                 5.7673                 3.7203
 Frc consts  --      1.2090                 1.4344                 1.0465
 IR Inten    --      6.6792                 3.8437                 6.3997

                     31                     32                     33
                      A                      A                      A
 Frequencies --    757.1081               787.0002               795.1768
 Red. masses --      1.5301                 5.6553                 5.9592
 Frc consts  --      0.5168                 2.0637                 2.2201
 IR Inten    --     78.4827                13.3403                 8.8583

                     34                     35                     36
                      A                      A                      A
 Frequencies --    808.2509               832.9011               871.0345
 Red. masses --      3.6625                 2.6211                 3.6654
 Frc consts  --      1.4097                 1.0713                 1.6385
 IR Inten    --      3.7518                36.0679                 4.7333

                     37                     38                     39
                      A                      A                      A
 Frequencies --    918.9332               926.4916               965.5172
 Red. masses --      2.2280                 3.6989                 2.1687
 Frc consts  --      1.1085                 1.8707                 1.1912
 IR Inten    --      8.0826                 4.4412                24.6208

                     40                     41                     42
                      A                      A                      A
 Frequencies --    995.1997               999.5396              1007.4041
 Red. masses --      2.2564                 1.6103                 1.5511
 Frc consts  --      1.3167                 0.9479                 0.9274
 IR Inten    --      1.0084                24.0284                19.5847

                     43                     44                     45
                      A                      A                      A
 Frequencies --   1047.2161              1050.4564              1060.9503
 Red. masses --      2.3744                 2.9234                 2.3017
 Frc consts  --      1.5342                 1.9006                 1.5265
 IR Inten    --      2.4916                11.4714                66.5260

                     46                     47                     48
                      A                      A                      A
 Frequencies --   1064.5956              1074.1388              1094.5735
 Red. masses --      2.0632                 3.4431                 2.7614
 Frc consts  --      1.3777                 2.3406                 1.9492
 IR Inten    --     58.3202                31.6671                 9.8861

                     49                     50                     51
                      A                      A                      A
 Frequencies --   1099.0054              1130.5115              1144.3223
 Red. masses --      2.2544                 2.2823                 2.0714
 Frc consts  --      1.6043                 1.7186                 1.5981
 IR Inten    --     34.4644                23.7944               101.1545

                     52                     53                     54
                      A                      A                      A
 Frequencies --   1148.6835              1150.9006              1210.8423
 Red. masses --      1.6539                 1.4465                 1.1184
 Frc consts  --      1.2858                 1.1289                 0.9661
 IR Inten    --     27.4788                 2.2387                 1.0013

                     55                     56                     57
                      A                      A                      A
 Frequencies --   1249.3894              1257.9624              1279.6825
 Red. masses --      2.4997                 1.5120                 1.3241
 Frc consts  --      2.2990                 1.4097                 1.2776
 IR Inten    --    396.1546                70.8276                17.0820

                     58                     59                     60
                      A                      A                      A
 Frequencies --   1290.2302              1306.9196              1312.1768
 Red. masses --      1.4940                 1.3258                 1.4410
 Frc consts  --      1.4654                 1.3342                 1.4619
 IR Inten    --     36.7450                79.9033                10.7188

                     61                     62                     63
                      A                      A                      A
 Frequencies --   1320.5126              1360.2169              1362.5752
 Red. masses --      3.2446                 1.2970                 1.3229
 Frc consts  --      3.3335                 1.4139                 1.4471
 IR Inten    --    178.5517                 3.3139                 7.5014

                     64                     65                     66
                      A                      A                      A
 Frequencies --   1379.7301              1393.7001              1399.3381
 Red. masses --      1.3270                 1.4374                 1.2897
 Frc consts  --      1.4883                 1.6450                 1.4880
 IR Inten    --      3.3917                 3.1486                41.0687

                     67                     68                     69
                      A                      A                      A
 Frequencies --   1404.9525              1414.4786              1421.4408
 Red. masses --      1.3263                 2.8532                 1.3269
 Frc consts  --      1.5424                 3.3634                 1.5796
 IR Inten    --     26.2752               176.8965                 3.3327

                     70                     71                     72
                      A                      A                      A
 Frequencies --   1433.1279              1460.6972              1466.9263
 Red. masses --      1.5532                 1.3850                 1.0525
 Frc consts  --      1.8796                 1.7411                 1.3344
 IR Inten    --      1.8342               115.1466                19.0444

                     73                     74                     75
                      A                      A                      A
 Frequencies --   1473.2549              1487.7639              1488.4173
 Red. masses --      1.0457                 1.0958                 1.1699
 Frc consts  --      1.3373                 1.4291                 1.5271
 IR Inten    --     13.0298                 6.8509                30.9657

                     76                     77                     78
                      A                      A                      A
 Frequencies --   1495.2088              1499.9163              1508.1587
 Red. masses --      1.0670                 1.0558                 1.0595
 Frc consts  --      1.4055                 1.3994                 1.4198
 IR Inten    --     11.1844                 9.1971                30.5998

                     79                     80                     81
                      A                      A                      A
 Frequencies --   1714.6519              1740.6220              1777.7989
 Red. masses --      6.5246                12.6891                10.5587
 Frc consts  --     11.3020                22.6511                19.6619
 IR Inten    --      5.8522              1011.3901               393.4420

                     82                     83                     84
                      A                      A                      A
 Frequencies --   1821.7416              3038.3942              3050.7528
 Red. masses --     11.8918                 1.0352                 1.0842
 Frc consts  --     23.2526                 5.6305                 5.9452
 IR Inten    --     64.8411                40.2619                11.5191

                     85                     86                     87
                      A                      A                      A
 Frequencies --   3054.3793              3062.1922              3065.9927
 Red. masses --      1.0845                 1.0369                 1.0354
 Frc consts  --      5.9614                 5.7288                 5.7344
 IR Inten    --      7.2923                 2.1755                29.7169

                     88                     89                     90
                      A                      A                      A
 Frequencies --   3075.6028              3078.9248              3083.5737
 Red. masses --      1.0841                 1.0818                 1.0639
 Frc consts  --      6.0419                 6.0421                 5.9603
 IR Inten    --     10.0685                 4.5050                33.6514

                     91                     92                     93
                      A                      A                      A
 Frequencies --   3109.9621              3120.8963              3130.2373
 Red. masses --      1.1026                 1.1021                 1.1006
 Frc consts  --      6.2831                 6.3246                 6.3540
 IR Inten    --     35.6699                45.6784                 4.6674

                     94                     95                     96
                      A                      A                      A
 Frequencies --   3144.9009              3157.1545              3161.4803
 Red. masses --      1.1009                 1.1047                 1.0863
 Frc consts  --      6.4152                 6.4873                 6.3973
 IR Inten    --     10.9974                11.6660                12.0278

                     97                     98                     99
                      A                      A                      A
 Frequencies --   3176.7854              3178.7217              3188.8525
 Red. masses --      1.1041                 1.1069                 1.0962
 Frc consts  --      6.5651                 6.5894                 6.5674
 IR Inten    --      7.7364                 1.0525                26.8522

 - Thermochemistry -
 -------------------
 Temperature   298.150 Kelvin.  Pressure   1.00000 Atm.
 Atom     1 has atomic number  6 and mass  12.00000

 Molecular mass:   251.11576 amu.
 Principal axes and moments of inertia in atomic units:
                           1         2         3
     Eigenvalues --  2442.023156765.038218401.35896
           X            0.99995   0.00968   0.00380
           Y           -0.00962   0.99985  -0.01456
           Z           -0.00394   0.01452   0.99989
 This molecule is an asymmetric top.
 Rotational symmetry number  1.
 Warning -- assumption of classical behavior for rotation
           may cause significant error
 Rotational temperatures (Kelvin)      0.03547     0.01280     0.01031
 Rotational constants (GHZ):           0.73904     0.26677     0.21482
 Zero-point vibrational energy     758934.0 (Joules/Mol)
                                  181.38959 (Kcal/Mol)
 Warning -- explicit consideration of  27 degrees of freedom as
           vibrations may cause significant error
 Vibrational temperatures:     28.89    43.34    61.25    63.23    80.83
          (Kelvin)            107.84   131.33   156.68   208.24   230.02
                              278.05   325.29   338.32   356.33   408.70
                              429.88   452.03   464.55   573.67   596.77
                              645.60   691.76   759.62   827.29   865.21
                              871.57   880.12   924.50   934.79   994.14
                             1089.31  1132.32  1144.08  1162.89  1198.36
                             1253.22  1322.14  1333.01  1389.16  1431.87
                             1438.11  1449.43  1506.71  1511.37  1526.47
                             1531.71  1545.44  1574.85  1581.22  1626.55
                             1646.42  1652.70  1655.89  1742.13  1797.59
                             1809.93  1841.18  1856.35  1880.36  1887.93
                             1899.92  1957.05  1960.44  1985.12  2005.22
                             2013.33  2021.41  2035.12  2045.13  2061.95
                             2101.61  2110.58  2119.68  2140.56  2141.50
                             2151.27  2158.04  2169.90  2467.00  2504.36
                             2557.85  2621.08  4371.57  4389.35  4394.57
                             4405.81  4411.27  4425.10  4429.88  4436.57
                             4474.54  4490.27  4503.71  4524.81  4542.44
                             4548.66  4570.68  4573.47  4588.04

 Zero-point correction=                           0.289063 (Hartree/Particle)
 Thermal correction to Energy=                    0.307024
 Thermal correction to Enthalpy=                  0.307968
 Thermal correction to Gibbs Free Energy=         0.240293
 Sum of electronic and zero-point Energies=           -861.115726
 Sum of electronic and thermal Energies=              -861.097765
 Sum of electronic and thermal Enthalpies=            -861.096820
 Sum of electronic and thermal Free Energies=         -861.164496

                     E (Thermal)             CV                S
                      KCal/Mol        Cal/Mol-Kelvin    Cal/Mol-Kelvin
 Total                  192.661             65.445            142.435
 Electronic               0.000              0.000              0.000
 Translational            0.889              2.981             42.463
 Rotational               0.889              2.981             33.295
 Vibrational            190.883             59.483             66.677
 Vibration     1          0.593              1.986              6.626
 Vibration     2          0.594              1.984              5.822
 Vibration     3          0.595              1.980              5.136
 Vibration     4          0.595              1.980              5.073
 Vibration     5          0.596              1.975              4.587
 Vibration     6          0.599              1.966              4.019
 Vibration     7          0.602              1.955              3.632
 Vibration     8          0.606              1.942              3.288
 Vibration     9          0.616              1.908              2.740
 Vibration    10          0.622              1.892              2.551
 Vibration    11          0.635              1.849              2.196
 Vibration    12          0.650              1.801              1.910
 Vibration    13          0.655              1.787              1.839
 Vibration    14          0.661              1.767              1.747
 Vibration    15          0.682              1.703              1.509
 Vibration    16          0.692              1.676              1.424
 Vibration    17          0.702              1.647              1.340
 Vibration    18          0.708              1.630              1.295
 Vibration    19          0.765              1.473              0.967
 Vibration    20          0.778              1.438              0.910
 Vibration    21          0.808              1.364              0.800
 Vibration    22          0.837              1.293              0.708
 Vibration    23          0.883              1.188              0.592
 Vibration    24          0.931              1.085              0.495
 Vibration    25          0.960              1.029              0.447
 Vibration    26          0.964              1.020              0.440
 Vibration    27          0.971              1.007              0.430

 Optimization completed on the basis of negligible forces.
    -- Stationary point found.
 Normal termination of Gaussian 09 at Thu Aug 27 19:43:32 2020.
