 Gaussian 09, Revision D.01,
 Gaussian 09:  ES64L-G09RevD.01 24-Apr-2013

 ----------------------------------------------------------------------
 # freq b3lyp/6-31+g(d,p) scrf=(cpcm,solvent=toluene) geom=connectivity
  empiricaldispersion=gd3
 ----------------------------------------------------------------------

 -------------------
 Title Card Required
 -------------------
 Symbolic Z-matrix:
 Charge =  0 Multiplicity = 1

                         Standard orientation:
 ---------------------------------------------------------------------
 Center     Atomic      Atomic             Coordinates (Angstroms)
 Number     Number       Type             X           Y           Z
 ---------------------------------------------------------------------
      1          6           0        2.563470    0.719879    0.610803
      2          6           0        1.566234   -0.267827    1.093216
      3          6           0        0.290590    0.245540    0.821006
      4          6           0        0.477318    1.574334    0.166277
      5          1           0        1.820092   -0.954471    1.887086
      6          1           0       -0.601901    0.053869    1.400030
      7          6           0        2.460387    2.902056   -0.652089
      8          1           0        1.733754    3.360045   -1.323944
      9          1           0        2.757759    3.630781    0.108664
     10          1           0        3.344733    2.589998   -1.209849
     11          7           0        1.846662    1.734989   -0.041070
     12          8           0       -0.377920    2.388699   -0.162947
     13          8           0        3.782544    0.706033    0.720460
     14          6           0        0.890465   -2.649259   -0.320085
     15          1           0        0.960330   -3.622897    0.162125
     16          6           0       -0.388975   -2.124428   -0.542638
     17          1           0       -1.245499   -2.700822   -0.202925
     18          6           0        2.062019   -1.912128   -0.471795
     19          1           0        2.066804   -1.092889   -1.186903
     20          6           0        3.414345   -2.456622   -0.116284
     21          1           0        4.062607   -1.664257    0.270342
     22          1           0        3.344819   -3.256191    0.627490
     23          1           0        3.901973   -2.863236   -1.012449
     24          6           0       -0.602849   -0.802462   -0.930307
     25          1           0        0.127214   -0.317740   -1.573711
     26          6           0       -1.979206   -0.213186   -1.050959
     27          1           0       -2.443133   -0.513327   -2.000269
     28          1           0       -1.912099    0.876288   -1.019056
     29          6           0       -3.958323   -0.127389    0.388332
     30          6           0       -4.391081    1.112758   -0.358066
     31          1           0       -4.421160    0.939385   -1.437881
     32          1           0       -5.380884    1.398253   -0.004779
     33          1           0       -3.689569    1.932906   -0.171599
     34          8           0       -2.782278   -0.711734    0.042157
     35          8           0       -4.594700   -0.626525    1.294160
 ---------------------------------------------------------------------

 SCF Done:  E(RB3LYP) =  -861.322118275     A.U. after   15 cycles

 The electronic state is 1-A.
 Alpha  occ. eigenvalues --  -19.21011 -19.16006 -19.15707 -19.15209 -14.39516
 Alpha  occ. eigenvalues --  -10.33530 -10.31992 -10.31695 -10.26593 -10.23354
 Alpha  occ. eigenvalues --  -10.23227 -10.23148 -10.22533 -10.22109 -10.21167
 Alpha  occ. eigenvalues --  -10.20974 -10.20798 -10.19264  -1.11376  -1.07903
 Alpha  occ. eigenvalues --   -1.05903  -1.03186  -0.96856  -0.85278  -0.82204
 Alpha  occ. eigenvalues --   -0.80037  -0.76033  -0.74419  -0.71595  -0.68891
 Alpha  occ. eigenvalues --   -0.67147  -0.62787  -0.61327  -0.59000  -0.56131
 Alpha  occ. eigenvalues --   -0.54149  -0.51549  -0.51278  -0.50700  -0.49642
 Alpha  occ. eigenvalues --   -0.49446  -0.47372  -0.47094  -0.45903  -0.45165
 Alpha  occ. eigenvalues --   -0.44809  -0.43987  -0.43419  -0.43092  -0.42024
 Alpha  occ. eigenvalues --   -0.41548  -0.41195  -0.40830  -0.40292  -0.39597
 Alpha  occ. eigenvalues --   -0.39328  -0.37682  -0.37077  -0.35929  -0.35560
 Alpha  occ. eigenvalues --   -0.31418  -0.30436  -0.28881  -0.28833  -0.28035
 Alpha  occ. eigenvalues --   -0.25915  -0.24677
 Alpha virt. eigenvalues --   -0.08546  -0.05608  -0.00997  -0.00331   0.00540
 Alpha virt. eigenvalues --    0.00844   0.01390   0.01813   0.02580   0.02753
 Alpha virt. eigenvalues --    0.03232   0.03863   0.04186   0.04862   0.05312

 Mulliken charges:
               1
     1  C    0.115983
     2  C   -0.020788
     3  C   -0.111994
     4  C    0.013263
     5  H    0.173733
     6  H    0.189294
     7  C   -0.210236
     8  H    0.174831
     9  H    0.169345
    10  H    0.172639
    11  N   -0.024024
    12  O   -0.514156
    13  O   -0.521487
    14  C   -0.256387
    15  H    0.136130
    16  C   -0.009770
    17  H    0.155556
    18  C    0.461323
    19  H    0.141322
    20  C   -0.699014
    21  H    0.190133
    22  H    0.152567
    23  H    0.166603
    24  C    0.334538
    25  H    0.155969
    26  C   -0.640931
    27  H    0.166971
    28  H    0.178771
    29  C    0.449049
    30  C   -0.431724
    31  H    0.181267
    32  H    0.189983
    33  H    0.200029
    34  O   -0.369029
    35  O   -0.459757
 Sum of Mulliken charges =   0.00000

 Dipole moment (field-independent basis, Debye):
    X=              1.5306    Y=             -0.4413    Z=             -4.4122  Tot=              4.6909
 Quadrupole moment (field-independent basis, Debye-Ang):
   XX=           -130.6691   YY=           -104.9800   ZZ=           -107.1343
   XY=            -10.5031   XZ=              9.9701   YZ=             -1.0398

  Exact polarizability: 267.952  -7.689 238.002   8.078   4.120 162.404
 Approx polarizability: 345.663 -11.668 313.588  20.074  14.934 226.080

 ******    1 imaginary frequencies (negative Signs) ******

                      1                      2                      3
                      A                      A                      A
 Frequencies --   -441.7123                14.4386                32.1586
 Red. masses --      8.1104                 4.1350                 5.6532
 Frc consts  --      0.9323                 0.0005                 0.0034
 IR Inten    --      4.1005                 1.9028                10.4514

                      4                      5                      6
                      A                      A                      A
 Frequencies --     42.7087                61.8255                75.1763
 Red. masses --      6.4043                 1.0267                 4.5527
 Frc consts  --      0.0069                 0.0023                 0.0152
 IR Inten    --      1.7083                 0.1420                 2.2198

                      7                      8                      9
                      A                      A                      A
 Frequencies --     94.9885               122.5412               146.4199
 Red. masses --      3.6627                 8.2835                 4.9144
 Frc consts  --      0.0195                 0.0733                 0.0621
 IR Inten    --      2.3824                 0.2808                 0.9467

                     10                     11                     12
                      A                      A                      A
 Frequencies --    158.1689               171.5635               172.3137
 Red. masses --      5.4451                 3.0876                 4.0824
 Frc consts  --      0.0803                 0.0535                 0.0714
 IR Inten    --      2.6743                 8.1364                 4.2664

                     13                     14                     15
                      A                      A                      A
 Frequencies --    186.8206               193.7326               203.0483
 Red. masses --      2.7023                 1.2199                 1.5514
 Frc consts  --      0.0556                 0.0270                 0.0377
 IR Inten    --      4.5012                 1.0733                 0.8533

                     16                     17                     18
                      A                      A                      A
 Frequencies --    235.2920               267.7450               283.7484
 Red. masses --      3.7754                 2.4730                 3.2922
 Frc consts  --      0.1231                 0.1045                 0.1562
 IR Inten    --      1.9151                 6.0010                 4.7965

                     19                     20                     21
                      A                      A                      A
 Frequencies --    292.4957               319.2843               367.3172
 Red. masses --      3.1560                 2.5838                 3.0803
 Frc consts  --      0.1591                 0.1552                 0.2449
 IR Inten    --      0.8627                 3.2671                 0.6851

                     22                     23                     24
                      A                      A                      A
 Frequencies --    390.2919               434.9498               462.0982
 Red. masses --      8.4715                 4.6150                 3.1917
 Frc consts  --      0.7603                 0.5144                 0.4016
 IR Inten    --     35.2001                12.1302                 2.7632

                     25                     26                     27
                      A                      A                      A
 Frequencies --    488.3751               536.6930               575.5077
 Red. masses --      2.9155                 4.8844                 2.6040
 Frc consts  --      0.4097                 0.8289                 0.5081
 IR Inten    --      1.9907                 9.2658                 7.3129

                     28                     29                     30
                      A                      A                      A
 Frequencies --    597.4696               604.7348               618.6829
 Red. masses --      4.7929                 9.1316                 3.9748
 Frc consts  --      1.0081                 1.9676                 0.8964
 IR Inten    --     20.4423                17.5177                 6.0139

                     31                     32                     33
                      A                      A                      A
 Frequencies --    708.3246               717.1377               721.9164
 Red. masses --      4.0462                 8.0545                 5.2208
 Frc consts  --      1.1961                 2.4406                 1.6031
 IR Inten    --      2.6148                54.4602                 7.8110

                     34                     35                     36
                      A                      A                      A
 Frequencies --    760.8180               769.4837               792.7721
 Red. masses --      4.9728                 7.8741                 1.3647
 Frc consts  --      1.6959                 2.7470                 0.5053
 IR Inten    --      2.8574                12.0822                30.7300

                     37                     38                     39
                      A                      A                      A
 Frequencies --    822.6032               856.6623               905.7622
 Red. masses --      2.3718                 1.6892                 1.3684
 Frc consts  --      0.9456                 0.7304                 0.6614
 IR Inten    --      4.7806                 7.6613                 4.2253

                     40                     41                     42
                      A                      A                      A
 Frequencies --    926.8404               947.8975               962.7584
 Red. masses --      1.7389                 1.2852                 2.0860
 Frc consts  --      0.8801                 0.6804                 1.1392
 IR Inten    --     10.3225                46.2732                71.6797

                     43                     44                     45
                      A                      A                      A
 Frequencies --    976.2801               993.7445              1013.4771
 Red. masses --      1.3163                 1.9357                 1.3590
 Frc consts  --      0.7392                 1.1263                 0.8224
 IR Inten    --     72.0213                50.6107                21.3200

                     46                     47                     48
                      A                      A                      A
 Frequencies --   1023.9738              1032.7603              1054.3946
 Red. masses --      1.5350                 1.5399                 1.5111
 Frc consts  --      0.9483                 0.9677                 0.9898
 IR Inten    --     55.7061                42.5774                28.9235

                     49                     50                     51
                      A                      A                      A
 Frequencies --   1060.3180              1069.9313              1082.9891
 Red. masses --      1.7618                 1.5325                 3.3194
 Frc consts  --      1.1671                 1.0336                 2.2938
 IR Inten    --     11.1296                16.1576                84.1644

                     52                     53                     54
                      A                      A                      A
 Frequencies --   1117.9888              1131.9099              1140.5523
 Red. masses --      2.5290                 1.9411                 3.2964
 Frc consts  --      1.8624                 1.4653                 2.5265
 IR Inten    --     31.0183                12.1848                84.2980

                     55                     56                     57
                      A                      A                      A
 Frequencies --   1149.9354              1176.1409              1241.2212
 Red. masses --      1.3034                 2.0465                 2.1104
 Frc consts  --      1.0155                 1.6679                 1.9156
 IR Inten    --     11.5994                 5.7875               586.0476

                     58                     59                     60
                      A                      A                      A
 Frequencies --   1271.8825              1277.3758              1287.9393
 Red. masses --      1.6086                 2.5100                 1.4257
 Frc consts  --      1.5332                 2.4131                 1.3934
 IR Inten    --    119.8654                23.7031                 6.3814

                     61                     62                     63
                      A                      A                      A
 Frequencies --   1293.7646              1331.9833              1345.3277
 Red. masses --      1.3599                 1.7256                 1.3977
 Frc consts  --      1.3411                 1.8038                 1.4905
 IR Inten    --     61.3539                 0.7988                 7.8174

                     64                     65                     66
                      A                      A                      A
 Frequencies --   1368.1980              1402.8953              1410.8895
 Red. masses --      1.8724                 1.3249                 3.2997
 Frc consts  --      2.0651                 1.5363                 3.8700
 IR Inten    --     17.0871                74.6679               327.1987

                     67                     68                     69
                      A                      A                      A
 Frequencies --   1417.8599              1424.0346              1433.6032
 Red. masses --      1.3304                 2.3470                 1.3759
 Frc consts  --      1.5758                 2.8041                 1.6661
 IR Inten    --     18.7128                 5.5712                 1.4358

                     70                     71                     72
                      A                      A                      A
 Frequencies --   1461.6214              1474.2550              1477.6376
 Red. masses --      1.3715                 1.0732                 1.0591
 Frc consts  --      1.7263                 1.3742                 1.3625
 IR Inten    --    139.5885                23.6068                29.7819

                     73                     74                     75
                      A                      A                      A
 Frequencies --   1482.7150              1490.4341              1497.9596
 Red. masses --      1.0505                 1.1598                 1.0838
 Frc consts  --      1.3606                 1.5179                 1.4328
 IR Inten    --     16.3547                39.5795                17.8239

                     76                     77                     78
                      A                      A                      A
 Frequencies --   1503.5997              1509.3605              1592.3513
 Red. masses --      1.0761                 1.0591                 3.1228
 Frc consts  --      1.4334                 1.4215                 4.6652
 IR Inten    --     16.7550                12.6774                25.2169

                     79                     80                     81
                      A                      A                      A
 Frequencies --   1596.2733              1721.5237              1787.4660
 Red. masses --      3.6778                11.5504                11.2414
 Frc consts  --      5.5215                20.1685                21.1615
 IR Inten    --     23.8810              1174.1584               295.4919

                     82                     83                     84
                      A                      A                      A
 Frequencies --   1789.3904              3025.0491              3027.7897
 Red. masses --     11.1626                 1.0417                 1.0668
 Frc consts  --     21.0583                 5.6165                 5.7624
 IR Inten    --    459.8667                32.4624                30.7269

                     85                     86                     87
                      A                      A                      A
 Frequencies --   3056.3942              3056.5587              3091.0997
 Red. masses --      1.0387                 1.0372                 1.0930
 Frc consts  --      5.7169                 5.7091                 6.1532
 IR Inten    --      1.6546                55.2456                12.5040

                     88                     89                     90
                      A                      A                      A
 Frequencies --   3121.6076              3123.5052              3125.4580
 Red. masses --      1.0968                 1.1006                 1.1030
 Frc consts  --      6.2971                 6.3268                 6.3482
 IR Inten    --      1.2422                 4.1357                 8.1646

                     91                     92                     93
                      A                      A                      A
 Frequencies --   3132.6846              3157.2655              3167.7034
 Red. masses --      1.0993                 1.0894                 1.0867
 Frc consts  --      6.3565                 6.3983                 6.4244
 IR Inten    --     14.8595                 5.9379                22.5359

                     94                     95                     96
                      A                      A                      A
 Frequencies --   3169.6491              3170.2717              3178.1867
 Red. masses --      1.1055                 1.0891                 1.1024
 Frc consts  --      6.5435                 6.4490                 6.5604
 IR Inten    --      4.4800                10.3895                 7.2756

                     97                     98                     99
                      A                      A                      A
 Frequencies --   3190.9692              3248.7925              3267.6241
 Red. masses --      1.0905                 1.0921                 1.0975
 Frc consts  --      6.5420                 6.7912                 6.9044
 IR Inten    --      8.8772                 0.5383                 1.0050

 - Thermochemistry -
 -------------------
 Temperature   298.150 Kelvin.  Pressure   1.00000 Atm.
 Atom     1 has atomic number  6 and mass  12.00000

 Molecular mass:   251.11576 amu.
 Principal axes and moments of inertia in atomic units:
                           1         2         3
     Eigenvalues --  2782.176966679.388638578.40648
           X            0.99967  -0.02513   0.00471
           Y            0.02520   0.99956  -0.01562
           Z           -0.00432   0.01573   0.99987
 This molecule is an asymmetric top.
 Rotational symmetry number  1.
 Warning -- assumption of classical behavior for rotation
           may cause significant error
 Rotational temperatures (Kelvin)      0.03113     0.01297     0.01010
 Rotational constants (GHZ):           0.64868     0.27020     0.21038
    1 imaginary frequencies ignored.
 Zero-point vibrational energy     743300.5 (Joules/Mol)
                                  177.65307 (Kcal/Mol)
 Warning -- explicit consideration of  29 degrees of freedom as
           vibrations may cause significant error
 Vibrational temperatures:     20.77    46.27    61.45    88.95   108.16
          (Kelvin)            136.67   176.31   210.67   227.57   246.84
                              247.92   268.79   278.74   292.14   338.53
                              385.22   408.25   420.84   459.38   528.49
                              561.54   625.79   664.86   702.66   772.18
                              828.03   859.62   870.08   890.15  1019.12
                             1031.80  1038.68  1094.65  1107.11  1140.62
                             1183.54  1232.54  1303.19  1333.51  1363.81
                             1385.19  1404.65  1429.77  1458.17  1473.27
                             1485.91  1517.04  1525.56  1539.39  1558.18
                             1608.53  1628.56  1641.00  1654.50  1692.20
                             1785.84  1829.95  1837.86  1853.06  1861.44
                             1916.42  1935.62  1968.53  2018.45  2029.95
                             2039.98  2048.87  2062.63  2102.94  2121.12
                             2125.99  2133.29  2144.40  2155.23  2163.34
                             2171.63  2291.04  2296.68  2476.89  2571.76
                             2574.53  4352.37  4356.31  4397.46  4397.70
                             4447.40  4491.29  4494.02  4496.83  4507.23
                             4542.60  4557.61  4560.41  4561.31  4572.70
                             4591.09  4674.28  4701.38

 Zero-point correction=                           0.283108 (Hartree/Particle)
 Thermal correction to Energy=                    0.301786
 Thermal correction to Enthalpy=                  0.302730
 Thermal correction to Gibbs Free Energy=         0.234303
 Sum of electronic and zero-point Energies=           -861.039010
 Sum of electronic and thermal Energies=              -861.020332
 Sum of electronic and thermal Enthalpies=            -861.019388
 Sum of electronic and thermal Free Energies=         -861.087815

                     E (Thermal)             CV                S
                      KCal/Mol        Cal/Mol-Kelvin    Cal/Mol-Kelvin
 Total                  189.374             68.003            144.017
 Electronic               0.000              0.000              0.000
 Translational            0.889              2.981             42.463
 Rotational               0.889              2.981             33.433
 Vibrational            187.596             62.041             68.122
 Vibration     1          0.593              1.986              7.281
 Vibration     2          0.594              1.983              5.692
 Vibration     3          0.595              1.980              5.129
 Vibration     4          0.597              1.973              4.398
 Vibration     5          0.599              1.966              4.013
 Vibration     6          0.603              1.953              3.555
 Vibration     7          0.610              1.930              3.060
 Vibration     8          0.617              1.907              2.718
 Vibration     9          0.621              1.893              2.572
 Vibration    10          0.626              1.877              2.418
 Vibration    11          0.626              1.877              2.410
 Vibration    12          0.632              1.858              2.259
 Vibration    13          0.635              1.849              2.192
 Vibration    14          0.639              1.836              2.105
 Vibration    15          0.655              1.787              1.838
 Vibration    16          0.673              1.732              1.611
 Vibration    17          0.682              1.704              1.511
 Vibration    18          0.688              1.688              1.459
 Vibration    19          0.705              1.637              1.314
 Vibration    20          0.740              1.539              1.091
 Vibration    21          0.758              1.491              0.999
 Vibration    22          0.796              1.394              0.843
 Vibration    23          0.820              1.334              0.760
 Vibration    24          0.844              1.276              0.688
 Vibration    25          0.892              1.169              0.572
 Vibration    26          0.932              1.084              0.494
 Vibration    27          0.955              1.037              0.454
 Vibration    28          0.963              1.022              0.442
 Vibration    29          0.979              0.992              0.419

 Normal termination of Gaussian 09 at Fri Aug 28 01:42:46 2020.
