 Gaussian 09, Revision D.01,
 Gaussian 09:  ES64L-G09RevD.01 24-Apr-2013

 -------------------------------------------
 #n wB97XD/Gen scrf(smd,solvent=toluene) opt
 -------------------------------------------

 -------------------------------------------
 dmad cycloaddition toluene with water - opt
 -------------------------------------------
 Symbolic Z-matrix:
 Charge =  0 Multiplicity = 1

 SCF Done:  E(RwB97XD) =  -872.250930667     A.U. after   18 cycles
 SCF Done:  E(RwB97XD) =  -872.250989978     A.U. after   17 cycles
 SCF Done:  E(RwB97XD) =  -872.249746720     A.U. after   16 cycles
 SCF Done:  E(RwB97XD) =  -872.251227356     A.U. after   12 cycles
 SCF Done:  E(RwB97XD) =  -872.250393866     A.U. after   16 cycles
 SCF Done:  E(RwB97XD) =  -872.251275730     A.U. after   10 cycles
 SCF Done:  E(RwB97XD) =  -872.251391390     A.U. after   13 cycles
 SCF Done:  E(RwB97XD) =  -872.251418318     A.U. after   15 cycles
 SCF Done:  E(RwB97XD) =  -872.251444102     A.U. after   13 cycles
 SCF Done:  E(RwB97XD) =  -872.251463860     A.U. after   14 cycles
 SCF Done:  E(RwB97XD) =  -872.251504904     A.U. after   12 cycles
 SCF Done:  E(RwB97XD) =  -872.251506342     A.U. after   10 cycles
 SCF Done:  E(RwB97XD) =  -872.251507848     A.U. after   12 cycles
 SCF Done:  E(RwB97XD) =  -872.251508373     A.U. after   12 cycles
 SCF Done:  E(RwB97XD) =  -872.251508644     A.U. after   12 cycles
 SCF Done:  E(RwB97XD) =  -872.251508928     A.U. after   12 cycles
 SCF Done:  E(RwB97XD) =  -872.251509074     A.U. after   11 cycles
 SCF Done:  E(RwB97XD) =  -872.251509118     A.U. after    9 cycles
 SCF Done:  E(RwB97XD) =  -872.251509115     A.U. after   10 cycles
 SCF Done:  E(RwB97XD) =  -872.251509098     A.U. after   12 cycles
 Optimization completed.
    -- Stationary point found.

                         Standard orientation:
 ---------------------------------------------------------------------
 Center     Atomic      Atomic             Coordinates (Angstroms)
 Number     Number       Type             X           Y           Z
 ---------------------------------------------------------------------
      1          7           0        0.311098   -0.343143   -1.026761
      2          7           0       -0.307429   -0.697855   -0.031956
      3          6           0        1.719650   -0.186410   -0.783372
      4          6           0       -1.752195   -0.778226   -0.288726
      5          8           0       -2.303746   -0.364883   -1.266828
      6          8           0        2.189306    0.908493   -0.627179
      7          8           0       -2.281056   -1.408132    0.722067
      8          8           0        2.337876   -1.326624   -0.868353
      9          6           0        3.754971   -1.303700   -0.611860
     10          1           0        4.087945   -2.328275   -0.746048
     11          1           0        4.253461   -0.643213   -1.319656
     12          1           0        3.927454   -0.974717    0.411401
     13          6           0       -3.709398   -1.533747    0.711126
     14          1           0       -4.164226   -0.544579    0.744945
     15          1           0       -4.037173   -2.067210   -0.180298
     16          1           0       -3.959667   -2.096578    1.605565
     17          8           0        1.191957    2.142797    1.722826
     18          1           0        1.609518    1.997432    0.861386
     19          1           0        1.545712    2.963624    2.071625
     20          8           0        1.706403   -0.673441    2.269528
     21          1           0        1.585911    0.282304    2.345537
     22          1           0        0.886363   -0.975567    1.865001
     23          8           0       -1.594233    1.754562    0.961670
     24          1           0       -1.554182    2.149925    0.078009
     25          1           0       -0.727959    1.931780    1.352006
     26          8           0       -1.417891    2.302698   -1.873983
     27          1           0       -1.667436    1.370756   -1.954455
     28          1           0       -0.518493    2.350050   -2.204992
 ---------------------------------------------------------------------

 The electronic state is 1-A.
 Alpha  occ. eigenvalues --  -19.33699 -19.32886 -19.27828 -19.27195 -19.26943
 Alpha  occ. eigenvalues --  -19.24951 -19.22919 -19.22123 -14.54366 -14.54080
 Alpha  occ. eigenvalues --  -10.47457 -10.46374 -10.35028 -10.34576  -1.27284
 Alpha  occ. eigenvalues --   -1.25708  -1.19255  -1.16994  -1.15684  -1.13446
 Alpha  occ. eigenvalues --   -1.11251  -1.09161  -1.08226  -0.92380  -0.86050
 Alpha  occ. eigenvalues --   -0.81447  -0.71425  -0.67926  -0.66217  -0.65172
 Alpha  occ. eigenvalues --   -0.63551  -0.62409  -0.61851  -0.60688  -0.60004
 Alpha  occ. eigenvalues --   -0.59643  -0.59093  -0.57720  -0.54910  -0.54291
 Alpha  occ. eigenvalues --   -0.53345  -0.51252  -0.50387  -0.49006  -0.48142
 Alpha  occ. eigenvalues --   -0.47709  -0.46966  -0.46661  -0.45445  -0.43069
 Alpha  occ. eigenvalues --   -0.42665  -0.42127  -0.41802  -0.41678  -0.40296
 Alpha  occ. eigenvalues --   -0.38627  -0.37865  -0.35863
 Alpha virt. eigenvalues --   -0.04389   0.04328   0.05443   0.05688   0.06105
 Alpha virt. eigenvalues --    0.06460   0.07069   0.08106   0.08429   0.08953
 Alpha virt. eigenvalues --    0.09521   0.09997   0.10372   0.10869   0.11637

 Mulliken charges:
               1
     1  N   -0.314199
     2  N   -0.157832
     3  C    0.470338
     4  C    0.465417
     5  O   -0.364341
     6  O   -0.411802
     7  O   -0.181753
     8  O   -0.189949
     9  C   -0.221667
    10  H    0.172377
    11  H    0.173133
    12  H    0.191766
    13  C   -0.247649
    14  H    0.189221
    15  H    0.170250
    16  H    0.172302
    17  O   -0.756048
    18  H    0.367251
    19  H    0.375319
    20  O   -0.691440
    21  H    0.372090
    22  H    0.354038
    23  O   -0.743643
    24  H    0.371024
    25  H    0.386607
    26  O   -0.653427
    27  H    0.346138
    28  H    0.356478
 Sum of Mulliken charges =   0.00000

 Dipole moment (field-independent basis, Debye):
    X=              2.7648    Y=             -1.8870    Z=             -1.1898  Tot=              3.5526
 Quadrupole moment (field-independent basis, Debye-Ang):
   XX=            -66.1575   YY=            -77.9777   ZZ=            -90.6652
   XY=             14.3713   XZ=            -10.0410   YZ=              6.8574

 Normal termination of Gaussian 09 at Wed Feb  9 17:04:13 2022.
