 Gaussian 09, Revision D.01,
 Gaussian 09:  ES64L-G09RevD.01 24-Apr-2013

 --------------------------------------------
 #n wB97XD/Gen scrf(smd,solvent=toluene) freq
 --------------------------------------------

 ---------------------------------------
 dmad cycloaddition water toluene - freq
 ---------------------------------------
 Symbolic Z-matrix:
 Charge =  0 Multiplicity = 1

                         Standard orientation:
 ---------------------------------------------------------------------
 Center     Atomic      Atomic             Coordinates (Angstroms)
 Number     Number       Type             X           Y           Z
 ---------------------------------------------------------------------
      1          7           0        0.311099   -0.343140   -1.026761
      2          7           0       -0.307431   -0.697860   -0.031961
      3          6           0        1.719649   -0.186411   -0.783371
      4          6           0       -1.752191   -0.778229   -0.288731
      5          8           0       -2.303751   -0.364879   -1.266831
      6          8           0        2.189310    0.908488   -0.627181
      7          8           0       -2.281061   -1.408129    0.722069
      8          8           0        2.337879   -1.326622   -0.868351
      9          6           0        3.754969   -1.303703   -0.611861
     10          1           0        4.087948   -2.328283   -0.746051
     11          1           0        4.253459   -0.643213   -1.319661
     12          1           0        3.927449   -0.974723    0.411399
     13          6           0       -3.709402   -1.533748    0.711129
     14          1           0       -4.164231   -0.544577    0.744939
     15          1           0       -4.037172   -2.067207   -0.180301
     16          1           0       -3.959672   -2.096577    1.605559
     17          8           0        1.191961    2.142799    1.722829
     18          1           0        1.609521    1.997429    0.861389
     19          1           0        1.545712    2.963619    2.071629
     20          8           0        1.706399   -0.673441    2.269529
     21          1           0        1.585910    0.282299    2.345539
     22          1           0        0.886359   -0.975571    1.864999
     23          8           0       -1.594229    1.754561    0.961669
     24          1           0       -1.554179    2.149931    0.078009
     25          1           0       -0.727959    1.931780    1.352009
     26          8           0       -1.417889    2.302701   -1.873981
     27          1           0       -1.667439    1.370761   -1.954461
     28          1           0       -0.518489    2.350050   -2.204991
 ---------------------------------------------------------------------

 SCF Done:  E(RwB97XD) =  -872.251509097     A.U. after   18 cycles

 The electronic state is 1-A.
 Alpha  occ. eigenvalues --  -19.33699 -19.32885 -19.27828 -19.27194 -19.26943
 Alpha  occ. eigenvalues --  -19.24951 -19.22919 -19.22123 -14.54366 -14.54080
 Alpha  occ. eigenvalues --  -10.47457 -10.46374 -10.35028 -10.34576  -1.27284
 Alpha  occ. eigenvalues --   -1.25707  -1.19255  -1.16994  -1.15684  -1.13447
 Alpha  occ. eigenvalues --   -1.11251  -1.09161  -1.08226  -0.92380  -0.86050
 Alpha  occ. eigenvalues --   -0.81447  -0.71425  -0.67926  -0.66217  -0.65172
 Alpha  occ. eigenvalues --   -0.63551  -0.62409  -0.61851  -0.60688  -0.60004
 Alpha  occ. eigenvalues --   -0.59644  -0.59093  -0.57720  -0.54910  -0.54291
 Alpha  occ. eigenvalues --   -0.53345  -0.51252  -0.50387  -0.49006  -0.48142
 Alpha  occ. eigenvalues --   -0.47708  -0.46966  -0.46661  -0.45445  -0.43069
 Alpha  occ. eigenvalues --   -0.42665  -0.42127  -0.41802  -0.41678  -0.40296
 Alpha  occ. eigenvalues --   -0.38627  -0.37865  -0.35863
 Alpha virt. eigenvalues --   -0.04389   0.04328   0.05443   0.05688   0.06105
 Alpha virt. eigenvalues --    0.06460   0.07069   0.08106   0.08429   0.08953
 Alpha virt. eigenvalues --    0.09521   0.09997   0.10372   0.10869   0.11637

 Mulliken charges:
               1
     1  N   -0.314224
     2  N   -0.157809
     3  C    0.470334
     4  C    0.465423
     5  O   -0.364348
     6  O   -0.411800
     7  O   -0.181749
     8  O   -0.189946
     9  C   -0.221666
    10  H    0.172377
    11  H    0.173132
    12  H    0.191766
    13  C   -0.247647
    14  H    0.189220
    15  H    0.170249
    16  H    0.172302
    17  O   -0.756046
    18  H    0.367251
    19  H    0.375317
    20  O   -0.691440
    21  H    0.372089
    22  H    0.354040
    23  O   -0.743645
    24  H    0.371026
    25  H    0.386606
    26  O   -0.653429
    27  H    0.346139
    28  H    0.356478
 Sum of Mulliken charges =   0.00000

 Dipole moment (field-independent basis, Debye):
    X=              2.7648    Y=             -1.8871    Z=             -1.1898  Tot=              3.5526
 Quadrupole moment (field-independent basis, Debye-Ang):
   XX=            -66.1577   YY=            -77.9778   ZZ=            -90.6651
   XY=             14.3712   XZ=            -10.0409   YZ=              6.8574

  Exact polarizability: 148.404   3.582 116.257  -6.997  -4.407 112.599
 Approx polarizability: 123.406   5.318 114.315  -3.663  -5.469 113.217

                      1                      2                      3
                      A                      A                      A
 Frequencies --     30.7038                52.0886                60.5415
 Red. masses --      5.4578                 5.7274                 6.2110
 Frc consts  --      0.0030                 0.0092                 0.0134
 IR Inten    --      4.0335                 4.6811                 4.2758

                      4                      5                      6
                      A                      A                      A
 Frequencies --     68.1187                75.2013                80.8950
 Red. masses --      5.3728                 5.5099                 5.9910
 Frc consts  --      0.0147                 0.0184                 0.0231
 IR Inten    --      2.0401                 4.7153                 1.0833

                      7                      8                      9
                      A                      A                      A
 Frequencies --     86.6097                95.0355               103.1378
 Red. masses --      5.3293                 6.7936                 1.7994
 Frc consts  --      0.0236                 0.0362                 0.0113
 IR Inten    --     15.0160                 4.6624                 3.3307

                     10                     11                     12
                      A                      A                      A
 Frequencies --    117.1878               124.3878               136.3205
 Red. masses --      6.0952                 4.2123                 3.3223
 Frc consts  --      0.0493                 0.0384                 0.0364
 IR Inten    --      5.4361                 2.0937                 0.7786

                     13                     14                     15
                      A                      A                      A
 Frequencies --    139.1164               153.3239               158.6909
 Red. masses --      1.1218                 3.4667                 4.7276
 Frc consts  --      0.0128                 0.0480                 0.0701
 IR Inten    --      0.1855                12.4357                 2.9859

                     16                     17                     18
                      A                      A                      A
 Frequencies --    179.8817               194.4871               200.5274
 Red. masses --      5.8874                 5.4675                 5.0270
 Frc consts  --      0.1122                 0.1218                 0.1191
 IR Inten    --      5.8397                 0.4696                 1.3479

                     19                     20                     21
                      A                      A                      A
 Frequencies --    204.7731               232.2571               250.3584
 Red. masses --      5.0985                 1.7359                 1.2347
 Frc consts  --      0.1260                 0.0552                 0.0456
 IR Inten    --      4.2891                73.2594                35.0786

                     22                     23                     24
                      A                      A                      A
 Frequencies --    261.7650               285.2377               308.8977
 Red. masses --      1.7517                 5.0417                 1.5047
 Frc consts  --      0.0707                 0.2417                 0.0846
 IR Inten    --     80.2080                11.2576                59.7486

                     25                     26                     27
                      A                      A                      A
 Frequencies --    310.8243               318.1239               327.2878
 Red. masses --      2.8457                 1.2481                 2.1180
 Frc consts  --      0.1620                 0.0744                 0.1337
 IR Inten    --     24.3666                41.3928                44.4711

                     28                     29                     30
                      A                      A                      A
 Frequencies --    380.2680               439.6366               466.2297
 Red. masses --      1.0602                 1.5347                 1.7111
 Frc consts  --      0.0903                 0.1748                 0.2191
 IR Inten    --    103.7470                20.1224                27.3674

                     31                     32                     33
                      A                      A                      A
 Frequencies --    491.4890               502.9692               528.9299
 Red. masses --      1.5039                 1.0363                 3.4746
 Frc consts  --      0.2140                 0.1545                 0.5727
 IR Inten    --     40.4477               323.1336                 9.8925

                     34                     35                     36
                      A                      A                      A
 Frequencies --    541.8316               647.6566               662.0850
 Red. masses --      1.1490                 1.0664                 6.2367
 Frc consts  --      0.1987                 0.2635                 1.6108
 IR Inten    --    309.2133               272.6113                 5.2436

                     37                     38                     39
                      A                      A                      A
 Frequencies --    679.8380               744.0971               751.7298
 Red. masses --      1.0866                 3.3893                 1.3489
 Frc consts  --      0.2959                 1.1057                 0.4491
 IR Inten    --     71.8154                97.1038               148.2090

                     40                     41                     42
                      A                      A                      A
 Frequencies --    798.4591               856.3181               918.4305
 Red. masses --      8.0996                 6.7596                 5.7113
 Frc consts  --      3.0424                 2.9204                 2.8384
 IR Inten    --     19.2284                13.7347                83.8537

                     43                     44                     45
                      A                      A                      A
 Frequencies --    998.1743              1044.1993              1067.5453
 Red. masses --      9.1194                 8.9296                 8.3580
 Frc consts  --      5.3534                 5.7366                 5.6121
 IR Inten    --      5.1459                 0.7100                41.8807

                     46                     47                     48
                      A                      A                      A
 Frequencies --   1187.1650              1188.0601              1220.9410
 Red. masses --      1.2786                 1.2884                 1.5172
 Frc consts  --      1.0617                 1.0715                 1.3325
 IR Inten    --      0.8729                 1.4114                 2.4301

                     49                     50                     51
                      A                      A                      A
 Frequencies --   1224.1007              1332.7697              1359.2563
 Red. masses --      1.5055                 5.9991                 5.2919
 Frc consts  --      1.3291                 6.2784                 5.7606
 IR Inten    --     24.6806              1072.6178               229.7784

                     52                     53                     54
                      A                      A                      A
 Frequencies --   1483.3421              1485.1684              1486.5021
 Red. masses --      1.0489                 1.2416                 1.0441
 Frc consts  --      1.3598                 1.6136                 1.3593
 IR Inten    --     17.0759                65.5115                15.1952

                     55                     56                     57
                      A                      A                      A
 Frequencies --   1491.1555              1492.1820              1492.8953
 Red. masses --      1.1846                 1.0827                 1.0888
 Frc consts  --      1.5520                 1.4203                 1.4297
 IR Inten    --     21.6962                20.3437                23.7247

                     58                     59                     60
                      A                      A                      A
 Frequencies --   1620.0070              1628.3756              1668.6571
 Red. masses --      1.0869                 1.0822                 1.0819
 Frc consts  --      1.6806                 1.6906                 1.7748
 IR Inten    --    154.9667                67.7965                99.1032

                     61                     62                     63
                      A                      A                      A
 Frequencies --   1686.8452              1717.3598              1830.2922
 Red. masses --      1.0776                13.7085                10.4520
 Frc consts  --      1.8066                23.8212                20.6295
 IR Inten    --     69.5409                 5.2281               420.7842

                     64                     65                     66
                      A                      A                      A
 Frequencies --   1854.5343              3084.4037              3094.2076
 Red. masses --     11.2825                 1.0304                 1.0295
 Frc consts  --     22.8626                 5.7757                 5.8071
 IR Inten    --    443.2468                21.1688                22.4828

                     67                     68                     69
                      A                      A                      A
 Frequencies --   3172.1747              3187.6278              3201.0556
 Red. masses --      1.1080                 1.1083                 1.1077
 Frc consts  --      6.5693                 6.6352                 6.6871
 IR Inten    --      8.4331                 5.4127                 7.3065

                     70                     71                     72
                      A                      A                      A
 Frequencies --   3210.2349              3702.8844              3724.2888
 Red. masses --      1.1081                 1.0503                 1.0555
 Frc consts  --      6.7285                 8.4850                 8.6261
 IR Inten    --      5.2119               140.2046               140.0575

                     73                     74                     75
                      A                      A                      A
 Frequencies --   3740.9463              3760.9993              3794.4398
 Red. masses --      1.0535                 1.0542                 1.0756
 Frc consts  --      8.6863                 8.7856                 9.1242
 IR Inten    --    225.9558               382.7877               360.3736

                     76                     77                     78
                      A                      A                      A
 Frequencies --   3856.1518              3910.8025              3913.9632
 Red. masses --      1.0765                 1.0725                 1.0737
 Frc consts  --      9.4315                 9.6646                 9.6907
 IR Inten    --    237.4011               101.8410               161.1572

 - Thermochemistry -
 -------------------
 Temperature   298.150 Kelvin.  Pressure   1.00000 Atm.
 Atom     1 has atomic number  7 and mass  14.00307

 Molecular mass:   218.07502 amu.
 Principal axes and moments of inertia in atomic units:
                           1         2         3
     Eigenvalues --  2562.216144697.791474994.77745
           X            0.99999   0.00329  -0.00358
           Y           -0.00327   0.99998   0.00565
           Z            0.00359  -0.00564   0.99998
 This molecule is an asymmetric top.
 Rotational symmetry number  1.
 Warning -- assumption of classical behavior for rotation
           may cause significant error
 Rotational temperatures (Kelvin)      0.03380     0.01844     0.01734
 Rotational constants (GHZ):           0.70437     0.38417     0.36133
 Zero-point vibrational energy     567505.2 (Joules/Mol)
                                  135.63699 (Kcal/Mol)
 Warning -- explicit consideration of  34 degrees of freedom as
           vibrations may cause significant error
 Vibrational temperatures:     44.18    74.94    87.11    98.01   108.20
          (Kelvin)            116.39   124.61   136.73   148.39   168.61
                              178.97   196.13   200.16   220.60   228.32
                              258.81   279.82   288.51   294.62   334.17
                              360.21   376.62   410.39   444.43   447.21
                              457.71   470.89   547.12   632.54   670.80
                              707.14   723.66   761.01   779.57   931.83
                              952.59   978.13  1070.59  1081.57  1148.80
                             1232.05  1321.42  1436.15  1502.37  1535.96
                             1708.06  1709.35  1756.66  1761.21  1917.56
                             1955.66  2134.20  2136.82  2138.74  2145.44
                             2146.91  2147.94  2330.83  2342.87  2400.82
                             2426.99  2470.89  2633.38  2668.26  4437.76
                             4451.87  4564.05  4586.28  4605.60  4618.81
                             5327.62  5358.41  5382.38  5411.23  5459.35
                             5548.14  5626.77  5631.31

 Zero-point correction=                           0.216151 (Hartree/Particle)
 Thermal correction to Energy=                    0.238557
 Thermal correction to Enthalpy=                  0.239502
 Thermal correction to Gibbs Free Energy=         0.164525
 Sum of electronic and zero-point Energies=           -872.035358
 Sum of electronic and thermal Energies=              -872.012952
 Sum of electronic and thermal Enthalpies=            -872.012007
 Sum of electronic and thermal Free Energies=         -872.086984

                     E (Thermal)             CV                S
                      KCal/Mol        Cal/Mol-Kelvin    Cal/Mol-Kelvin
 Total                  149.697             73.848            157.802
 Electronic               0.000              0.000              0.000
 Translational            0.889              2.981             42.042
 Rotational               0.889              2.981             32.464
 Vibrational            147.920             67.886             83.296
 Vibration     1          0.594              1.984              5.783
 Vibration     2          0.596              1.977              4.736
 Vibration     3          0.597              1.973              4.439
 Vibration     4          0.598              1.969              4.207
 Vibration     5          0.599              1.966              4.012
 Vibration     6          0.600              1.962              3.869
 Vibration     7          0.601              1.959              3.735
 Vibration     8          0.603              1.953              3.554
 Vibration     9          0.605              1.947              3.394
 Vibration    10          0.608              1.935              3.146
 Vibration    11          0.610              1.929              3.031
 Vibration    12          0.614              1.917              2.855
 Vibration    13          0.615              1.914              2.816
 Vibration    14          0.619              1.899              2.631
 Vibration    15          0.621              1.893              2.565
 Vibration    16          0.629              1.867              2.330
 Vibration    17          0.635              1.848              2.185
 Vibration    18          0.638              1.839              2.128
 Vibration    19          0.640              1.833              2.090
 Vibration    20          0.653              1.792              1.861
 Vibration    21          0.663              1.762              1.728
 Vibration    22          0.669              1.743              1.650
 Vibration    23          0.683              1.701              1.502
 Vibration    24          0.698              1.657              1.368
 Vibration    25          0.700              1.653              1.358
 Vibration    26          0.705              1.639              1.320
 Vibration    27          0.711              1.621              1.273
 Vibration    28          0.750              1.512              1.038
 Vibration    29          0.800              1.384              0.828
 Vibration    30          0.824              1.325              0.748
 Vibration    31          0.847              1.269              0.680
 Vibration    32          0.858              1.243              0.651
 Vibration    33          0.884              1.186              0.590
 Vibration    34          0.897              1.158              0.561

 Normal termination of Gaussian 09 at Fri Feb 11 15:06:35 2022.
