 Gaussian 09, Revision D.01,
 Gaussian 09:  ES64L-G09RevD.01 24-Apr-2013

 -----------------------------------------------------------------
 #n wB97XD/Gen scrf(smd,solvent=toluene) freq int=(grid=ultrafine)
 -----------------------------------------------------------------

 -----------------------------
 ts cylco water toluene - freq
 -----------------------------
 Symbolic Z-matrix:
 Charge =  0 Multiplicity = 1

                         Standard orientation:
 ---------------------------------------------------------------------
 Center     Atomic      Atomic             Coordinates (Angstroms)
 Number     Number       Type             X           Y           Z
 ---------------------------------------------------------------------
      1          6           0       -0.504960   -1.058981   -1.196220
      2          6           0       -1.588319   -1.941642   -0.505310
      3          6           0        0.419942   -2.866920    0.106500
      4          6           0        0.761091   -1.849769   -0.943630
      5          1           0       -0.682080   -0.505541   -2.103890
      6          1           0        1.753711   -1.514518   -1.192990
      7          6           0       -0.911938   -2.511401    0.729680
      8          1           0       -1.454177   -3.381742    1.099100
      9          1           0       -0.808439   -1.777861    1.526360
     10          6           0       -1.129388   -2.684201   -1.653800
     11          1           0       -1.615388   -2.716352   -2.616500
     12          6           0        0.203853   -3.236890   -1.327340
     13          1           0        0.741064   -3.975239   -1.897890
     14          1           0       -2.592919   -1.543203   -0.475860
     15          1           0        1.223663   -3.320469    0.664670
     16          7           0        0.637619    0.235420    0.873670
     17          7           0       -0.178441    0.572570   -0.070530
     18          6           0        1.977449    0.408632    0.559980
     19          6           0       -1.513382    0.780168    0.401360
     20          8           0       -1.873182    0.717548    1.547820
     21          8           0        2.848199    0.066023    1.332140
     22          8           0       -2.272112    1.123957   -0.621940
     23          8           0        2.238468    1.000112   -0.615040
     24          6           0        3.614728    1.181894   -0.939630
     25          1           0        3.628017    1.666124   -1.913660
     26          1           0        4.109207    1.814724   -0.202860
     27          1           0        4.133339    0.224574   -0.999190
     28          6           0       -3.602612    1.550016   -0.313780
     29          1           0       -4.178082    0.734125    0.124530
     30          1           0       -3.568213    2.399516    0.366610
     31          1           0       -4.036963    1.850405   -1.263480
     32          8           0       -1.394945    4.035248    0.365510
     33          1           0       -0.872655    3.749609   -0.402570
     34          1           0       -0.870065    3.794779    1.131290
     35          8           0       -3.963999   -1.202825    1.852980
     36          1           0       -4.355469   -1.326355    2.719100
     37          1           0       -3.297070   -0.510614    1.962420
     38          8           0        0.161226    2.935610   -1.765790
     39          1           0        1.073906    3.229991   -1.787960
     40          1           0        0.196867    2.051530   -1.359540
     41          8           0        5.668770   -0.258734    1.381740
     42          1           0        4.707989   -0.126385    1.376930
     43          1           0        5.891320   -0.433974    2.297150
 ---------------------------------------------------------------------

 SCF Done:  E(RwB97XD) =  -1143.68145286     A.U. after   18 cycles

 The electronic state is 1-A.
 Alpha  occ. eigenvalues --  -19.30800 -19.30236 -19.25005 -19.24621 -19.24040
 Alpha  occ. eigenvalues --  -19.23449 -19.22411 -19.22393 -14.50882 -14.45803
 Alpha  occ. eigenvalues --  -10.44620 -10.43161 -10.36181 -10.35182 -10.33757
 Alpha  occ. eigenvalues --  -10.33644 -10.33106 -10.33094 -10.32789 -10.31877
 Alpha  occ. eigenvalues --  -10.29617  -1.23884  -1.22446  -1.14512  -1.12559
 Alpha  occ. eigenvalues --   -1.11475  -1.10826  -1.10222  -1.08743  -1.08605
 Alpha  occ. eigenvalues --   -1.08446  -0.91932  -0.90199  -0.85736  -0.83284
 Alpha  occ. eigenvalues --   -0.80734  -0.79638  -0.69787  -0.68815  -0.67425
 Alpha  occ. eigenvalues --   -0.67041  -0.65788  -0.65627  -0.63822  -0.62529
 Alpha  occ. eigenvalues --   -0.62179  -0.60374  -0.59750  -0.59697  -0.59150
 Alpha  occ. eigenvalues --   -0.58191  -0.57417  -0.56594  -0.55615  -0.55090
 Alpha  occ. eigenvalues --   -0.53484  -0.51939  -0.51317  -0.50791  -0.50083
 Alpha  occ. eigenvalues --   -0.49408  -0.48645  -0.48006  -0.47075  -0.46216
 Alpha  occ. eigenvalues --   -0.46152  -0.45731  -0.45277  -0.45175  -0.44372
 Alpha  occ. eigenvalues --   -0.43746  -0.40704  -0.40467  -0.40058  -0.39699
 Alpha  occ. eigenvalues --   -0.39369  -0.39248  -0.38808  -0.38042  -0.37967
 Alpha  occ. eigenvalues --   -0.37798  -0.33513  -0.28159
 Alpha virt. eigenvalues --   -0.05329   0.03676   0.05046   0.05312   0.05609
 Alpha virt. eigenvalues --    0.06389   0.07176   0.07262   0.07424   0.07573
 Alpha virt. eigenvalues --    0.07980   0.09016   0.09497   0.09714   0.09823

 Mulliken charges:
               1
     1  C   -0.181139
     2  C   -0.175204
     3  C   -0.099263
     4  C   -0.300020
     5  H    0.224822
     6  H    0.194370
     7  C   -0.248242
     8  H    0.156176
     9  H    0.207280
    10  C    0.035818
    11  H    0.204705
    12  C   -0.022666
    13  H    0.181593
    14  H    0.226335
    15  H    0.177936
    16  N   -0.230309
    17  N   -0.376559
    18  C    0.517185
    19  C    0.070734
    20  O   -0.328473
    21  O   -0.422919
    22  O   -0.062095
    23  O   -0.343535
    24  C   -0.291355
    25  H    0.161380
    26  H    0.192227
    27  H    0.178816
    28  C   -0.211612
    29  H    0.174828
    30  H    0.198595
    31  H    0.167426
    32  O   -0.713264
    33  H    0.394388
    34  H    0.357182
    35  O   -0.701361
    36  H    0.351626
    37  H    0.319098
    38  O   -0.655094
    39  H    0.354527
    40  H    0.341343
    41  O   -0.690434
    42  H    0.326684
    43  H    0.338469
 Sum of Mulliken charges =   0.00000

 Dipole moment (field-independent basis, Debye):
    X=             -1.9575    Y=             -6.5131    Z=             -4.4116  Tot=              8.1064
 Quadrupole moment (field-independent basis, Debye-Ang):
   XX=           -138.1293   YY=           -124.8034   ZZ=           -115.9733
   XY=             11.6077   XZ=             -4.6970   YZ=              6.5716

  Exact polarizability: 250.613  30.446 274.927  20.189  39.012 209.987
 Approx polarizability: 226.306  27.788 251.809  28.152  42.218 234.291

 ******    1 imaginary frequencies (negative Signs) ******

                      1                      2                      3
                      A                      A                      A
 Frequencies --   -577.3492                20.1001                24.8366
 Red. masses --      9.3202                 5.2799                 5.4983
 Frc consts  --      1.8304                 0.0013                 0.0020
 IR Inten    --   2234.0094                 2.0947                 2.2164

                      4                      5                      6
                      A                      A                      A
 Frequencies --     31.7327                39.0366                47.1683
 Red. masses --      5.9256                 5.1738                 5.3050
 Frc consts  --      0.0035                 0.0046                 0.0070
 IR Inten    --      0.4650                 1.7010                 0.6674

                      7                      8                      9
                      A                      A                      A
 Frequencies --     52.3012                60.7902                66.1426
 Red. masses --      4.9073                 5.5805                 5.7007
 Frc consts  --      0.0079                 0.0122                 0.0147
 IR Inten    --      2.0108                 3.5343                 4.6960

                     10                     11                     12
                      A                      A                      A
 Frequencies --     71.4601                84.4386                86.1759
 Red. masses --      5.4400                 3.2094                 5.6453
 Frc consts  --      0.0164                 0.0135                 0.0247
 IR Inten    --      1.3742                37.2947                 5.3762

                     13                     14                     15
                      A                      A                      A
 Frequencies --     88.4568                93.3900               110.4972
 Red. masses --      4.4724                 1.4158                 3.8203
 Frc consts  --      0.0206                 0.0073                 0.0275
 IR Inten    --      5.6507                91.8141                35.4164

                     16                     17                     18
                      A                      A                      A
 Frequencies --    115.3912               119.3614               140.1014
 Red. masses --      2.2027                 1.3071                 2.1904
 Frc consts  --      0.0173                 0.0110                 0.0253
 IR Inten    --     52.5925                90.4168                10.5053

                     19                     20                     21
                      A                      A                      A
 Frequencies --    143.7677               150.1755               163.1005
 Red. masses --      2.2940                 4.7319                 3.2115
 Frc consts  --      0.0279                 0.0629                 0.0503
 IR Inten    --      1.1046                 8.3021                 4.3700

                     22                     23                     24
                      A                      A                      A
 Frequencies --    169.7847               179.6209               184.1428
 Red. masses --      1.9861                 3.2659                 2.4454
 Frc consts  --      0.0337                 0.0621                 0.0489
 IR Inten    --     97.8845                 0.9394                46.9212

                     25                     26                     27
                      A                      A                      A
 Frequencies --    192.6068               197.5263               206.6520
 Red. masses --      3.8096                 1.2753                 3.0237
 Frc consts  --      0.0833                 0.0293                 0.0761
 IR Inten    --     17.4901                 1.3404                26.8466

                     28                     29                     30
                      A                      A                      A
 Frequencies --    220.7727               270.3887               292.2134
 Red. masses --      4.2348                 3.8128                 1.0693
 Frc consts  --      0.1216                 0.1642                 0.0538
 IR Inten    --     15.9490                21.5207                43.5323

                     31                     32                     33
                      A                      A                      A
 Frequencies --    298.6115               330.8729               336.9055
 Red. masses --      6.3172                 2.1270                 1.5680
 Frc consts  --      0.3319                 0.1372                 0.1049
 IR Inten    --     27.4571                11.5142                73.4847

                     34                     35                     36
                      A                      A                      A
 Frequencies --    343.7336               355.6513               368.4153
 Red. masses --      5.3753                 1.1000                 1.0755
 Frc consts  --      0.3742                 0.0820                 0.0860
 IR Inten    --     19.5280               119.0383               159.8753

                     37                     38                     39
                      A                      A                      A
 Frequencies --    384.5670               435.9364               441.0276
 Red. masses --      1.0625                 5.0340                 2.2094
 Frc consts  --      0.0926                 0.5636                 0.2532
 IR Inten    --     97.0486                51.2948                 5.4139

                     40                     41                     42
                      A                      A                      A
 Frequencies --    461.3116               533.8197               534.8950
 Red. masses --      5.8091                 1.3050                 1.8898
 Frc consts  --      0.7284                 0.2191                 0.3186
 IR Inten    --     53.7426                86.8089                23.7621

                     43                     44                     45
                      A                      A                      A
 Frequencies --    604.5927               615.6994               632.4484
 Red. masses --      1.0651                 6.0584                 1.2879
 Frc consts  --      0.2294                 1.3531                 0.3035
 IR Inten    --     75.9049                61.2920               103.0419

                     46                     47                     48
                      A                      A                      A
 Frequencies --    640.9806               681.5874               714.0103
 Red. masses --      2.9938                 6.1431                 6.5868
 Frc consts  --      0.7247                 1.6814                 1.9785
 IR Inten    --     91.7663                45.8897                33.8354

                     49                     50                     51
                      A                      A                      A
 Frequencies --    739.9969               766.6351               792.8538
 Red. masses --      2.9371                 1.9090                 3.1532
 Frc consts  --      0.9476                 0.6611                 1.1679
 IR Inten    --    185.7253                51.8060                80.3390

                     52                     53                     54
                      A                      A                      A
 Frequencies --    800.7725               803.6115               807.8711
 Red. masses --      2.8815                 4.0831                 1.7882
 Frc consts  --      1.0886                 1.5536                 0.6876
 IR Inten    --     29.8864                14.9846                19.2124

                     55                     56                     57
                      A                      A                      A
 Frequencies --    824.2161               831.3108               857.1044
 Red. masses --      2.6294                 2.6215                 1.5525
 Frc consts  --      1.0524                 1.0674                 0.6720
 IR Inten    --     17.9858                10.1037                 7.1061

                     58                     59                     60
                      A                      A                      A
 Frequencies --    884.3479               920.4510               928.0458
 Red. masses --      2.5677                 2.8394                 2.2637
 Frc consts  --      1.1832                 1.4173                 1.1487
 IR Inten    --    221.7640                 5.5510                10.4144

                     61                     62                     63
                      A                      A                      A
 Frequencies --    949.1075               972.7210               986.4462
 Red. masses --      1.8039                 1.6879                 3.0154
 Frc consts  --      0.9574                 0.9410                 1.7288
 IR Inten    --      1.9664                10.2044                42.7101

                     64                     65                     66
                      A                      A                      A
 Frequencies --    994.8410              1015.9841              1043.4941
 Red. masses --      1.7869                 1.4740                 2.0005
 Frc consts  --      1.0420                 0.8964                 1.2834
 IR Inten    --     25.2297                 9.8844                27.6753

                     67                     68                     69
                      A                      A                      A
 Frequencies --   1054.9774              1065.3625              1077.8999
 Red. masses --      1.3391                 1.2258                 1.7425
 Frc consts  --      0.8781                 0.8197                 1.1928
 IR Inten    --      5.9457                 9.0255                 1.3919

                     70                     71                     72
                      A                      A                      A
 Frequencies --   1084.2263              1090.9378              1118.0749
 Red. masses --      6.4293                 1.3333                 1.5414
 Frc consts  --      4.4530                 0.9349                 1.1353
 IR Inten    --      6.2401                 1.5914                35.0907

                     73                     74                     75
                      A                      A                      A
 Frequencies --   1121.0878              1182.3153              1187.5006
 Red. masses --      5.3693                 1.2865                 1.2803
 Frc consts  --      3.9760                 1.0596                 1.0637
 IR Inten    --    138.8819                 2.1630                 1.1378

                     76                     77                     78
                      A                      A                      A
 Frequencies --   1199.3278              1224.1262              1229.4615
 Red. masses --      1.1866                 1.5265                 1.5427
 Frc consts  --      1.0056                 1.3477                 1.3739
 IR Inten    --     22.5371                72.8367                25.8274

                     79                     80                     81
                      A                      A                      A
 Frequencies --   1242.8218              1267.8385              1280.4838
 Red. masses --      1.6109                 1.5304                 3.6138
 Frc consts  --      1.4660                 1.4494                 3.4911
 IR Inten    --    296.2908                87.8974               751.9521

                     82                     83                     84
                      A                      A                      A
 Frequencies --   1307.5528              1308.9822              1311.1544
 Red. masses --      2.2334                 6.6366                 1.9855
 Frc consts  --      2.2498                 6.6998                 2.0110
 IR Inten    --     67.0488               916.6101                41.3326

                     85                     86                     87
                      A                      A                      A
 Frequencies --   1356.9148              1382.9831              1396.0627
 Red. masses --      4.1924                 2.4288                 5.4866
 Frc consts  --      4.5479                 2.7371                 6.3003
 IR Inten    --    110.8939               149.6322               327.9359

                     88                     89                     90
                      A                      A                      A
 Frequencies --   1426.2481              1483.2434              1484.6349
 Red. masses --      2.7086                 1.1630                 1.1137
 Frc consts  --      3.2463                 1.5074                 1.4463
 IR Inten    --     33.4904                42.4745                43.8931

                     91                     92                     93
                      A                      A                      A
 Frequencies --   1490.9366              1491.0884              1494.1967
 Red. masses --      1.0426                 1.1231                 1.1187
 Frc consts  --      1.3655                 1.4712                 1.4715
 IR Inten    --     15.0159                27.6072                15.2378

                     94                     95                     96
                      A                      A                      A
 Frequencies --   1497.8025              1500.2365              1636.0449
 Red. masses --      1.0456                 1.0896                 1.0903
 Frc consts  --      1.3821                 1.4449                 1.7195
 IR Inten    --     17.4869                20.0311               136.2645

                     97                     98                     99
                      A                      A                      A
 Frequencies --   1642.9651              1652.6766              1656.5480
 Red. masses --      1.0870                 1.0776                 1.0764
 Frc consts  --      1.7288                 1.7342                 1.7403
 IR Inten    --    195.4578                82.0802                33.5003

                    100                    101                    102
                      A                      A                      A
 Frequencies --   1755.7173              1802.8206              3069.5439
 Red. masses --     11.0739                10.0626                 1.0306
 Frc consts  --     20.1123                19.2692                 5.7214
 IR Inten    --    940.7272               360.5141                34.7214

                    103                    104                    105
                      A                      A                      A
 Frequencies --   3073.0106              3105.9118              3152.8067
 Red. masses --      1.0315                 1.0620                 1.1074
 Frc consts  --      5.7392                 6.0361                 6.4858
 IR Inten    --     28.1978                18.7001                14.0950

                    106                    107                    108
                      A                      A                      A
 Frequencies --   3162.1630              3169.4335              3175.0045
 Red. masses --      1.1073                 1.1055                 1.1064
 Frc consts  --      6.5238                 6.5431                 6.5710
 IR Inten    --      3.7801                 0.5627                13.8352

                    109                    110                    111
                      A                      A                      A
 Frequencies --   3189.3090              3229.6723              3249.1733
 Red. masses --      1.1066                 1.0925                 1.0936
 Frc consts  --      6.6321                 6.7143                 6.8023
 IR Inten    --      7.9368                 0.8934                 0.4147

                    112                    113                    114
                      A                      A                      A
 Frequencies --   3259.0903              3268.7477              3270.1537
 Red. masses --      1.0915                 1.0931                 1.0942
 Frc consts  --      6.8309                 6.8815                 6.8945
 IR Inten    --      7.8290                 5.2859                 7.8929

                    115                    116                    117
                      A                      A                      A
 Frequencies --   3278.2775              3614.3361              3665.3645
 Red. masses --      1.0999                 1.0600                 1.0584
 Frc consts  --      6.9645                 8.1585                 8.3779
 IR Inten    --      3.8747               754.5705               457.5351

                    118                    119                    120
                      A                      A                      A
 Frequencies --   3692.6187              3734.2843              3909.3562
 Red. masses --      1.0581                 1.0557                 1.0695
 Frc consts  --      8.5006                 8.6734                 9.6307
 IR Inten    --    852.4715               238.8917                83.0132

                    121                    122                    123
                      A                      A                      A
 Frequencies --   3912.5540              3922.5008              3924.0322
 Red. masses --      1.0686                 1.0705                 1.0729
 Frc consts  --      9.6378                 9.7041                 9.7339
 IR Inten    --     84.9476               141.6423               134.2349

 - Thermochemistry -
 -------------------
 Temperature   298.150 Kelvin.  Pressure   1.00000 Atm.
 Atom     1 has atomic number  6 and mass  12.00000

 Molecular mass:   310.13762 amu.
 Principal axes and moments of inertia in atomic units:
                           1         2         3
     Eigenvalues --  5419.323237846.55118**********
           X            0.99998   0.00330  -0.00586
           Y           -0.00336   0.99995  -0.00956
           Z            0.00582   0.00958   0.99994
 This molecule is an asymmetric top.
 Rotational symmetry number  1.
 Warning -- assumption of classical behavior for rotation
           may cause significant error
 Rotational temperatures (Kelvin)      0.01598     0.01104     0.00825
 Rotational constants (GHZ):           0.33302     0.23000     0.17199
    1 imaginary frequencies ignored.
 Zero-point vibrational energy     901922.1 (Joules/Mol)
                                  215.56456 (Kcal/Mol)
 Warning -- explicit consideration of  43 degrees of freedom as
           vibrations may cause significant error
 Vibrational temperatures:     28.92    35.73    45.66    56.16    67.86
          (Kelvin)             75.25    87.46    95.16   102.82   121.49
                              123.99   127.27   134.37   158.98   166.02
                              171.73   201.57   206.85   216.07   234.66
                              244.28   258.43   264.94   277.12   284.20
                              297.33   317.64   389.03   420.43   429.63
                              476.05   484.73   494.56   511.70   530.07
                              553.31   627.21   634.54   663.72   768.05
                              769.59   869.87   885.85   909.95   922.23
                              980.65  1027.30  1064.69  1103.02  1140.74
                             1152.13  1156.22  1162.34  1185.86  1196.07
                             1233.18  1272.38  1324.32  1335.25  1365.55
                             1399.53  1419.27  1431.35  1461.77  1501.35
                             1517.88  1532.82  1550.86  1559.96  1569.61
                             1608.66  1612.99  1701.09  1708.55  1725.56
                             1761.24  1768.92  1788.14  1824.13  1842.33
                             1881.27  1883.33  1886.46  1952.30  1989.80
                             2008.62  2052.05  2134.05  2136.06  2145.12
                             2145.34  2149.81  2155.00  2158.50  2353.90
                             2363.86  2377.83  2383.40  2526.08  2593.85
                             4416.38  4421.37  4468.71  4536.18  4549.64
                             4560.10  4568.12  4588.70  4646.77  4674.83
                             4689.10  4702.99  4705.02  4716.70  5200.22
                             5273.64  5312.85  5372.80  5624.68  5629.29
                             5643.60  5645.80

 Zero-point correction=                           0.343524 (Hartree/Particle)
 Thermal correction to Energy=                    0.372669
 Thermal correction to Enthalpy=                  0.373613
 Thermal correction to Gibbs Free Energy=         0.280708
 Sum of electronic and zero-point Energies=          -1143.337929
 Sum of electronic and thermal Energies=             -1143.308784
 Sum of electronic and thermal Enthalpies=           -1143.307840
 Sum of electronic and thermal Free Energies=        -1143.400745

                     E (Thermal)             CV                S
                      KCal/Mol        Cal/Mol-Kelvin    Cal/Mol-Kelvin
 Total                  233.853             99.307            195.536
 Electronic               0.000              0.000              0.000
 Translational            0.889              2.981             43.092
 Rotational               0.889              2.981             34.455
 Vibrational            232.076             93.346            117.988
 Vibration     1          0.593              1.986              6.624
 Vibration     2          0.593              1.985              6.204
 Vibration     3          0.594              1.983              5.718
 Vibration     4          0.594              1.981              5.307
 Vibration     5          0.595              1.979              4.933
 Vibration     6          0.596              1.977              4.728
 Vibration     7          0.597              1.973              4.431
 Vibration     8          0.598              1.970              4.265
 Vibration     9          0.598              1.968              4.113
 Vibration    10          0.601              1.960              3.785
 Vibration    11          0.601              1.959              3.745
 Vibration    12          0.601              1.957              3.694
 Vibration    13          0.602              1.954              3.588
 Vibration    14          0.606              1.941              3.260
 Vibration    15          0.608              1.937              3.176
 Vibration    16          0.609              1.933              3.111
 Vibration    17          0.615              1.913              2.802
 Vibration    18          0.616              1.909              2.753
 Vibration    19          0.618              1.902              2.670
 Vibration    20          0.623              1.888              2.514
 Vibration    21          0.625              1.880              2.438
 Vibration    22          0.629              1.867              2.332
 Vibration    23          0.631              1.861              2.286
 Vibration    24          0.635              1.850              2.203
 Vibration    25          0.637              1.843              2.156
 Vibration    26          0.641              1.830              2.073
 Vibration    27          0.647              1.809              1.953
 Vibration    28          0.674              1.728              1.594
 Vibration    29          0.688              1.688              1.461
 Vibration    30          0.692              1.676              1.425
 Vibration    31          0.713              1.614              1.256
 Vibration    32          0.718              1.602              1.227
 Vibration    33          0.722              1.588              1.195
 Vibration    34          0.731              1.564              1.141
 Vibration    35          0.741              1.537              1.086
 Vibration    36          0.754              1.503              1.021
 Vibration    37          0.796              1.392              0.839
 Vibration    38          0.801              1.381              0.823
 Vibration    39          0.819              1.336              0.762
 Vibration    40          0.889              1.175              0.579
 Vibration    41          0.890              1.173              0.576
 Vibration    42          0.963              1.022              0.442
 Vibration    43          0.975              0.999              0.423

 Normal termination of Gaussian 09 at Mon Feb 21 03:03:56 2022.
