 Gaussian 09, Revision D.01,
 Gaussian 09:  ES64L-G09RevD.01 24-Apr-2013

 ----------------------------------------------------------------------
 #n wB97XD/Gen scrf(smd,solvent=toluene) opt=(calcfc,ts,noeigentest) in
 t=(grid=ultrafine)
 ----------------------------------------------------------------------

 ------------------------------------------
 ts cycloaddition toluene with 4 h2o - opt4
 ------------------------------------------
 Symbolic Z-matrix:
 Charge =  0 Multiplicity = 1

 SCF Done:  E(RwB97XD) =  -1143.68143924     A.U. after   18 cycles

  Exact polarizability:   0.000   0.000   0.000   0.000   0.000   0.000
 Approx polarizability: 226.698  28.062 251.443  28.392  41.916 234.156

 SCF Done:  E(RwB97XD) =  -1143.68144459     A.U. after   13 cycles
 SCF Done:  E(RwB97XD) =  -1143.68138118     A.U. after   14 cycles
 SCF Done:  E(RwB97XD) =  -1143.68145213     A.U. after   15 cycles
 SCF Done:  E(RwB97XD) =  -1143.68144515     A.U. after   12 cycles
 SCF Done:  E(RwB97XD) =  -1143.68145337     A.U. after   12 cycles
 SCF Done:  E(RwB97XD) =  -1143.68109003     A.U. after   16 cycles
 SCF Done:  E(RwB97XD) =  -1143.68135344     A.U. after   14 cycles
 SCF Done:  E(RwB97XD) =  -1143.68136843     A.U. after   15 cycles
 SCF Done:  E(RwB97XD) =  -1143.68142752     A.U. after   15 cycles
 SCF Done:  E(RwB97XD) =  -1143.68145287     A.U. after   10 cycles
 SCF Done:  E(RwB97XD) =  -1143.68145277     A.U. after   11 cycles
 SCF Done:  E(RwB97XD) =  -1143.67979297     A.U. after   15 cycles
 SCF Done:  E(RwB97XD) =  -1143.68087669     A.U. after   14 cycles
 SCF Done:  E(RwB97XD) =  -1143.68075654     A.U. after   16 cycles
 SCF Done:  E(RwB97XD) =  -1143.68136670     A.U. after   13 cycles
 SCF Done:  E(RwB97XD) =  -1143.68142426     A.U. after   14 cycles
 SCF Done:  E(RwB97XD) =  -1143.68145217     A.U. after   13 cycles
 SCF Done:  E(RwB97XD) =  -1143.68145283     A.U. after   12 cycles
 SCF Done:  E(RwB97XD) =  -1143.68145286     A.U. after    9 cycles
 Optimization completed.
    -- Stationary point found.

                         Standard orientation:
 ---------------------------------------------------------------------
 Center     Atomic      Atomic             Coordinates (Angstroms)
 Number     Number       Type             X           Y           Z
 ---------------------------------------------------------------------
      1          6           0       -0.504959   -1.058980   -1.196221
      2          6           0       -1.588320   -1.941643   -0.505305
      3          6           0        0.419935   -2.866920    0.106503
      4          6           0        0.761093   -1.849765   -0.943625
      5          1           0       -0.682079   -0.505538   -2.103891
      6          1           0        1.753706   -1.514517   -1.192989
      7          6           0       -0.911941   -2.511401    0.729680
      8          1           0       -1.454176   -3.381741    1.099100
      9          1           0       -0.808436   -1.777864    1.526360
     10          6           0       -1.129391   -2.684197   -1.653796
     11          1           0       -1.615395   -2.716348   -2.616503
     12          6           0        0.203852   -3.236891   -1.327341
     13          1           0        0.741056   -3.975240   -1.897894
     14          1           0       -2.592922   -1.543205   -0.475859
     15          1           0        1.223661   -3.320470    0.664669
     16          7           0        0.637618    0.235415    0.873672
     17          7           0       -0.178443    0.572567   -0.070525
     18          6           0        1.977448    0.408632    0.559981
     19          6           0       -1.513381    0.780168    0.401357
     20          8           0       -1.873184    0.717549    1.547822
     21          8           0        2.848195    0.066022    1.332136
     22          8           0       -2.272111    1.123961   -0.621943
     23          8           0        2.238468    1.000108   -0.615043
     24          6           0        3.614730    1.181895   -0.939625
     25          1           0        3.628017    1.666124   -1.913659
     26          1           0        4.109214    1.814721   -0.202856
     27          1           0        4.133344    0.224570   -0.999187
     28          6           0       -3.602614    1.550017   -0.313783
     29          1           0       -4.178076    0.734130    0.124529
     30          1           0       -3.568208    2.399519    0.366605
     31          1           0       -4.036957    1.850414   -1.263479
     32          8           0       -1.394937    4.035249    0.365510
     33          1           0       -0.872652    3.749607   -0.402574
     34          1           0       -0.870057    3.794775    1.131288
     35          8           0       -3.963998   -1.202824    1.852976
     36          1           0       -4.355472   -1.326351    2.719099
     37          1           0       -3.297075   -0.510612    1.962421
     38          8           0        0.161231    2.935613   -1.765790
     39          1           0        1.073906    3.229987   -1.787958
     40          1           0        0.196873    2.051530   -1.359541
     41          8           0        5.668772   -0.258741    1.381742
     42          1           0        4.707990   -0.126389    1.376929
     43          1           0        5.891320   -0.433982    2.297148
 ---------------------------------------------------------------------

 The electronic state is 1-A.
 Alpha  occ. eigenvalues --  -19.30800 -19.30236 -19.25005 -19.24621 -19.24040
 Alpha  occ. eigenvalues --  -19.23449 -19.22411 -19.22393 -14.50882 -14.45803
 Alpha  occ. eigenvalues --  -10.44620 -10.43161 -10.36181 -10.35182 -10.33757
 Alpha  occ. eigenvalues --  -10.33644 -10.33106 -10.33094 -10.32789 -10.31877
 Alpha  occ. eigenvalues --  -10.29617  -1.23884  -1.22446  -1.14512  -1.12559
 Alpha  occ. eigenvalues --   -1.11475  -1.10826  -1.10222  -1.08743  -1.08605
 Alpha  occ. eigenvalues --   -1.08446  -0.91932  -0.90199  -0.85736  -0.83284
 Alpha  occ. eigenvalues --   -0.80734  -0.79638  -0.69787  -0.68815  -0.67425
 Alpha  occ. eigenvalues --   -0.67041  -0.65788  -0.65627  -0.63822  -0.62528
 Alpha  occ. eigenvalues --   -0.62179  -0.60374  -0.59750  -0.59697  -0.59150
 Alpha  occ. eigenvalues --   -0.58191  -0.57417  -0.56594  -0.55615  -0.55090
 Alpha  occ. eigenvalues --   -0.53484  -0.51939  -0.51317  -0.50791  -0.50083
 Alpha  occ. eigenvalues --   -0.49408  -0.48645  -0.48006  -0.47075  -0.46216
 Alpha  occ. eigenvalues --   -0.46152  -0.45731  -0.45277  -0.45175  -0.44372
 Alpha  occ. eigenvalues --   -0.43745  -0.40704  -0.40467  -0.40058  -0.39699
 Alpha  occ. eigenvalues --   -0.39369  -0.39248  -0.38808  -0.38042  -0.37967
 Alpha  occ. eigenvalues --   -0.37798  -0.33513  -0.28159
 Alpha virt. eigenvalues --   -0.05329   0.03676   0.05046   0.05312   0.05609
 Alpha virt. eigenvalues --    0.06389   0.07176   0.07262   0.07424   0.07573
 Alpha virt. eigenvalues --    0.07980   0.09016   0.09497   0.09714   0.09823

 Mulliken charges:
               1
     1  C   -0.181131
     2  C   -0.175202
     3  C   -0.099263
     4  C   -0.300020
     5  H    0.224823
     6  H    0.194371
     7  C   -0.248237
     8  H    0.156176
     9  H    0.207280
    10  C    0.035808
    11  H    0.204706
    12  C   -0.022677
    13  H    0.181594
    14  H    0.226335
    15  H    0.177936
    16  N   -0.230310
    17  N   -0.376559
    18  C    0.517186
    19  C    0.070741
    20  O   -0.328479
    21  O   -0.422914
    22  O   -0.062096
    23  O   -0.343538
    24  C   -0.291357
    25  H    0.161380
    26  H    0.192228
    27  H    0.178815
    28  C   -0.211609
    29  H    0.174828
    30  H    0.198594
    31  H    0.167426
    32  O   -0.713265
    33  H    0.394389
    34  H    0.357182
    35  O   -0.701361
    36  H    0.351627
    37  H    0.319098
    38  O   -0.655091
    39  H    0.354525
    40  H    0.341341
    41  O   -0.690433
    42  H    0.326684
    43  H    0.338468
 Sum of Mulliken charges =   0.00000

 Dipole moment (field-independent basis, Debye):
    X=             -1.9575    Y=             -6.5131    Z=             -4.4116  Tot=              8.1065
 Quadrupole moment (field-independent basis, Debye-Ang):
   XX=           -138.1291   YY=           -124.8036   ZZ=           -115.9733
   XY=             11.6077   XZ=             -4.6968   YZ=              6.5716

 Normal termination of Gaussian 09 at Fri Feb 18 14:49:12 2022.
