 Gaussian 09, Revision D.01,
 Gaussian 09:  ES64L-G09RevD.01 24-Apr-2013

 ----------------------------------------------------------------------
 # opt freq b3lyp/6-31+g(d,p) scrf=(cpcm,solvent=water) geom=connectivi
 ty empiricaldispersion=gd3
 ----------------------------------------------------------------------

 -------------------
 Title Card Required
 -------------------
 Symbolic Z-matrix:
 Charge =  0 Multiplicity = 1

 SCF Done:  E(RB3LYP) =  -1269.00435208     A.U. after   15 cycles
 SCF Done:  E(RB3LYP) =  -1269.00920402     A.U. after   13 cycles
 SCF Done:  E(RB3LYP) =  -1269.01096158     A.U. after   13 cycles
 SCF Done:  E(RB3LYP) =  -1269.01184881     A.U. after   12 cycles
 SCF Done:  E(RB3LYP) =  -1269.01214396     A.U. after   12 cycles
 SCF Done:  E(RB3LYP) =  -1269.01235318     A.U. after   12 cycles
 SCF Done:  E(RB3LYP) =  -1269.01256870     A.U. after   12 cycles
 SCF Done:  E(RB3LYP) =  -1269.01288419     A.U. after   12 cycles
 SCF Done:  E(RB3LYP) =  -1269.01299889     A.U. after   11 cycles
 SCF Done:  E(RB3LYP) =  -1269.01304614     A.U. after   10 cycles
 SCF Done:  E(RB3LYP) =  -1269.01342001     A.U. after    9 cycles
 SCF Done:  E(RB3LYP) =  -1269.01342037     A.U. after   10 cycles
 SCF Done:  E(RB3LYP) =  -1269.01342112     A.U. after   10 cycles
 SCF Done:  E(RB3LYP) =  -1269.01342235     A.U. after   11 cycles
 SCF Done:  E(RB3LYP) =  -1269.01342291     A.U. after   10 cycles
 SCF Done:  E(RB3LYP) =  -1269.01342299     A.U. after   10 cycles
 SCF Done:  E(RB3LYP) =  -1269.01342310     A.U. after   10 cycles
 SCF Done:  E(RB3LYP) =  -1269.01342318     A.U. after    9 cycles
 SCF Done:  E(RB3LYP) =  -1269.01342319     A.U. after    8 cycles
 Optimization completed.
    -- Stationary point found.
 Normal termination of Gaussian 09 at Thu Aug 27 22:23:01 2020.

 ----------------------------------------------------------------------
 #N Geom=AllCheck Guess=TCheck SCRF=Check GenChk RB3LYP/6-31+G(d,p) Fre
 q
 ----------------------------------------------------------------------

 Structure from the checkpoint file:  "b3lyp_sm_2H2O_claisen_PM6_toluene_water_1.chk"
 -------------------
 Title Card Required
 -------------------
 Charge =  0 Multiplicity = 1

                         Standard orientation:
 ---------------------------------------------------------------------
 Center     Atomic      Atomic             Coordinates (Angstroms)
 Number     Number       Type             X           Y           Z
 ---------------------------------------------------------------------
      1          6           0       -2.649841    2.491606    0.910599
      2          6           0       -2.948826    1.295099    0.293268
      3          6           0       -1.919500    0.395304   -0.098885
      4          6           0       -0.552527    0.765593    0.147148
      5          6           0       -0.281911    1.997991    0.801719
      6          6           0       -1.305562    2.843735    1.175042
      7          1           0       -3.451948    3.162361    1.202586
      8          1           0       -3.981711    1.026816    0.105054
      9          1           0        0.746187    2.258924    1.022430
     10          1           0       -1.079513    3.778598    1.678261
     11          6           0        0.505852   -0.120462   -0.249512
     12          6           0       -2.166198   -0.870121   -0.712061
     13          6           0        0.208235   -1.349878   -0.805142
     14          1           0        0.983943   -2.054241   -1.064153
     15          6           0       -1.137201   -1.718379   -1.042469
     16          1           0       -1.348138   -2.684136   -1.487479
     17          8           0        1.758548    0.381488   -0.025933
     18         17           0       -3.822580   -1.388066   -1.042330
     19          6           0        3.013881   -0.373664   -0.171384
     20          6           0        3.009997   -1.630191    0.679352
     21          1           0        3.639766   -2.436132    0.306725
     22          6           0        3.304743   -0.657112   -1.651976
     23          1           0        4.318859   -1.056687   -1.743947
     24          1           0        2.619227   -1.380144   -2.094423
     25          1           0        3.247762    0.271920   -2.225100
     26          6           0        4.055312    0.611479    0.382088
     27          1           0        3.801491    0.882010    1.409955
     28          1           0        5.044743    0.146681    0.375521
     29          1           0        4.091027    1.516662   -0.232132
     30          6           0        2.352590   -1.770720    1.832118
     31          1           0        2.421583   -2.685807    2.411831
     32          1           0        1.720168   -0.979728    2.226591
     33          8           0       -1.079362   -1.837787    2.481946
     34          1           0       -0.486291   -1.989779    1.731833
     35          1           0       -1.757640   -1.242522    2.133977
     36          8           0        1.896287    2.754839   -1.736267
     37          1           0        1.055511    3.214367   -1.609608
     38          1           0        1.860800    1.997960   -1.125707
 ---------------------------------------------------------------------

 SCF Done:  E(RB3LYP) =  -1269.01342319     A.U. after    2 cycles

 The electronic state is 1-A.
 Alpha  occ. eigenvalues -- -101.56507 -19.20491 -19.16947 -19.16138 -10.27753
 Alpha  occ. eigenvalues --  -10.27691 -10.26343 -10.23031 -10.22498 -10.21901
 Alpha  occ. eigenvalues --  -10.21085 -10.20986 -10.20921 -10.20905 -10.20817
 Alpha  occ. eigenvalues --  -10.20664 -10.19578 -10.18964 -10.18919  -9.47969
 Alpha  occ. eigenvalues --   -7.24367  -7.23414  -7.23387  -1.08398  -1.02114
 Alpha  occ. eigenvalues --   -1.01332  -0.91051  -0.86845  -0.84327  -0.82433
 Alpha  occ. eigenvalues --   -0.77614  -0.76565  -0.75928  -0.72850  -0.70329
 Alpha  occ. eigenvalues --   -0.65286  -0.64334  -0.62766  -0.61018  -0.57003
 Alpha  occ. eigenvalues --   -0.54186  -0.53729  -0.53181  -0.52820  -0.51193
 Alpha  occ. eigenvalues --   -0.49325  -0.48756  -0.47562  -0.45066  -0.44912
 Alpha  occ. eigenvalues --   -0.44472  -0.44223  -0.43550  -0.42776  -0.41303
 Alpha  occ. eigenvalues --   -0.40992  -0.40645  -0.39966  -0.39576  -0.39014
 Alpha  occ. eigenvalues --   -0.38706  -0.37803  -0.36804  -0.36291  -0.35895
 Alpha  occ. eigenvalues --   -0.35213  -0.33422  -0.32594  -0.32445  -0.31886
 Alpha  occ. eigenvalues --   -0.31707  -0.28277  -0.27842  -0.26681  -0.22438
 Alpha virt. eigenvalues --   -0.06342  -0.03893  -0.02212  -0.00406   0.00210
 Alpha virt. eigenvalues --    0.00756   0.01047   0.01478   0.01896   0.02437
 Alpha virt. eigenvalues --    0.03100   0.03507   0.03994   0.04839   0.05277

 Mulliken charges:
               1
     1  C   -0.500822
     2  C   -0.256753
     3  C    0.518448
     4  C    0.281252
     5  C   -0.218739
     6  C   -0.452816
     7  H    0.152711
     8  H    0.158407
     9  H    0.168355
    10  H    0.151679
    11  C   -0.050914
    12  C   -0.364269
    13  C   -0.009370
    14  H    0.150649
    15  C   -0.262251
    16  H    0.167131
    17  O   -0.414928
    18  Cl   0.225163
    19  C    0.173152
    20  C   -0.159640
    21  H    0.151790
    22  C   -0.406183
    23  H    0.171563
    24  H    0.156511
    25  H    0.163067
    26  C   -0.381073
    27  H    0.173387
    28  H    0.168888
    29  H    0.161807
    30  C   -0.268168
    31  H    0.152457
    32  H    0.154047
    33  O   -0.699807
    34  H    0.385639
    35  H    0.393447
    36  O   -0.751955
    37  H    0.384391
    38  H    0.433748
 Sum of Mulliken charges =   0.00000

 Dipole moment (field-independent basis, Debye):
    X=              2.1839    Y=             -0.2123    Z=             -0.3871  Tot=              2.2281
 Quadrupole moment (field-independent basis, Debye-Ang):
   XX=           -116.2064   YY=           -119.1044   ZZ=           -137.4824
   XY=            -20.0000   XZ=              2.1077   YZ=             16.1969

  Exact polarizability: 340.607  -7.451 310.228  -5.413  48.109 228.995
 Approx polarizability: 375.196 -10.191 352.591 -10.249  63.442 253.448

                      1                      2                      3
                      A                      A                      A
 Frequencies --     23.2631                33.1626                36.4209
 Red. masses --      5.9415                 9.1150                 4.4681
 Frc consts  --      0.0019                 0.0059                 0.0035
 IR Inten    --      1.8366                 7.3576                 1.1776

                      4                      5                      6
                      A                      A                      A
 Frequencies --     49.4592                53.3172                61.5327
 Red. masses --      4.3951                 5.0987                 4.6791
 Frc consts  --      0.0063                 0.0085                 0.0104
 IR Inten    --      4.5923                 5.0484                 4.8984

                      7                      8                      9
                      A                      A                      A
 Frequencies --     97.1625               103.9687               115.9389
 Red. masses --      2.1362                 4.1317                 4.0181
 Frc consts  --      0.0119                 0.0263                 0.0318
 IR Inten    --     31.3140                14.4439                 7.0288

                     10                     11                     12
                      A                      A                      A
 Frequencies --    125.2151               133.5466               137.9358
 Red. masses --      2.6658                 1.6134                 1.4004
 Frc consts  --      0.0246                 0.0170                 0.0157
 IR Inten    --     23.5246               103.9982                58.1484

                     13                     14                     15
                      A                      A                      A
 Frequencies --    144.8554               152.2054               167.4318
 Red. masses --      2.0453                 2.7846                 1.1902
 Frc consts  --      0.0253                 0.0380                 0.0197
 IR Inten    --     38.2476                44.1582               156.2162

                     16                     17                     18
                      A                      A                      A
 Frequencies --    190.5943               203.3093               209.6604
 Red. masses --      2.9288                 3.9583                 1.4352
 Frc consts  --      0.0627                 0.0964                 0.0372
 IR Inten    --     12.0299                 2.5541                 9.3709

                     19                     20                     21
                      A                      A                      A
 Frequencies --    227.6830               266.3752               283.4848
 Red. masses --      4.9928                 2.4550                 1.4957
 Frc consts  --      0.1525                 0.1026                 0.0708
 IR Inten    --      0.5557                 6.3043               137.2587

                     22                     23                     24
                      A                      A                      A
 Frequencies --    293.6595               322.0406               328.5426
 Red. masses --      1.1366                 2.8323                 1.8935
 Frc consts  --      0.0578                 0.1731                 0.1204
 IR Inten    --     27.7747                 3.5191                29.7019

                     25                     26                     27
                      A                      A                      A
 Frequencies --    365.4749               376.7649               393.0245
 Red. masses --      4.5733                 1.4298                 1.7182
 Frc consts  --      0.3599                 0.1196                 0.1564
 IR Inten    --      4.3234                95.6476                47.9223

                     28                     29                     30
                      A                      A                      A
 Frequencies --    418.8917               428.0494               438.2190
 Red. masses --      4.6102                 2.9870                 2.8948
 Frc consts  --      0.4766                 0.3225                 0.3275
 IR Inten    --      5.4958                19.6071                 7.5662

                     31                     32                     33
                      A                      A                      A
 Frequencies --    469.2371               497.4823               513.4475
 Red. masses --      3.4264                 4.7050                 1.1205
 Frc consts  --      0.4445                 0.6861                 0.1740
 IR Inten    --      3.4841                 4.5669               117.2603

                     34                     35                     36
                      A                      A                      A
 Frequencies --    532.6247               554.9634               590.3047
 Red. masses --      5.5177                 3.9333                 3.8593
 Frc consts  --      0.9223                 0.7137                 0.7923
 IR Inten    --     15.4803                 6.6205                 1.7427

                     37                     38                     39
                      A                      A                      A
 Frequencies --    596.2460               641.4662               662.4455
 Red. masses --      3.6986                 3.4562                 4.7208
 Frc consts  --      0.7747                 0.8379                 1.2206
 IR Inten    --      7.5814                10.0229                29.2407

                     40                     41                     42
                      A                      A                      A
 Frequencies --    693.8010               737.0180               765.0398
 Red. masses --      2.1957                 5.1527                 4.2327
 Frc consts  --      0.6227                 1.6491                 1.4596
 IR Inten    --     34.0451                16.5541                33.8671

                     43                     44                     45
                      A                      A                      A
 Frequencies --    768.3176               778.2570               803.1618
 Red. masses --      3.6197                 1.4840                 5.0873
 Frc consts  --      1.2589                 0.5296                 1.9335
 IR Inten    --     17.6257                95.8658                 3.8457

                     46                     47                     48
                      A                      A                      A
 Frequencies --    823.7431               871.5859               880.6430
 Red. masses --      1.4144                 2.9087                 1.4502
 Frc consts  --      0.5655                 1.3019                 0.6626
 IR Inten    --     73.8027               130.2932                 2.0571

                     49                     50                     51
                      A                      A                      A
 Frequencies --    932.1501               941.8202               950.9408
 Red. masses --      1.3555                 1.5463                 3.5490
 Frc consts  --      0.6939                 0.8081                 1.8909
 IR Inten    --      0.3559                12.2946                42.7163

                     52                     53                     54
                      A                      A                      A
 Frequencies --    962.6535               970.0558               984.2356
 Red. masses --      2.2361                 1.4472                 1.3388
 Frc consts  --      1.2209                 0.8024                 0.7641
 IR Inten    --     25.9783                32.4092                 2.8799

                     55                     56                     57
                      A                      A                      A
 Frequencies --   1009.6737              1025.8123              1031.9917
 Red. masses --      1.2879                 1.1078                 1.2941
 Frc consts  --      0.7735                 0.6869                 0.8120
 IR Inten    --      0.1597                38.7761                 1.4993

                     58                     59                     60
                      A                      A                      A
 Frequencies --   1054.7394              1060.5980              1092.4729
 Red. masses --      2.7852                 1.3633                 2.9848
 Frc consts  --      1.8255                 0.9035                 2.0989
 IR Inten    --     55.6117                28.4217               160.0633

                     61                     62                     63
                      A                      A                      A
 Frequencies --   1157.1051              1174.2655              1189.7249
 Red. masses --      2.2650                 2.1481                 1.6723
 Frc consts  --      1.7868                 1.7451                 1.3946
 IR Inten    --      0.1705               315.1829                 5.7264

                     64                     65                     66
                      A                      A                      A
 Frequencies --   1196.0494              1209.4039              1229.1849
 Red. masses --      1.1573                 3.1872                 1.6760
 Frc consts  --      0.9754                 2.7466                 1.4919
 IR Inten    --      2.8813                38.8320                31.7711

                     67                     68                     69
                      A                      A                      A
 Frequencies --   1251.1140              1270.1329              1292.2249
 Red. masses --      2.4949                 2.3903                 1.8590
 Frc consts  --      2.3009                 2.2719                 1.8290
 IR Inten    --    123.4325               115.3470                74.2431

                     70                     71                     72
                      A                      A                      A
 Frequencies --   1330.2413              1359.0669              1398.1422
 Red. masses --      1.3046                 4.9846                 6.9428
 Frc consts  --      1.3602                 5.4245                 7.9962
 IR Inten    --      4.8734                30.8832                75.4008

                     73                     74                     75
                      A                      A                      A
 Frequencies --   1407.1835              1409.7010              1428.9963
 Red. masses --      2.0394                 1.2259                 1.2084
 Frc consts  --      2.3793                 1.4354                 1.4539
 IR Inten    --    133.8405                15.5233                30.7266

                     76                     77                     78
                      A                      A                      A
 Frequencies --   1446.4048              1462.6786              1478.2150
 Red. masses --      1.1916                 2.3569                 1.0450
 Frc consts  --      1.4687                 2.9709                 1.3454
 IR Inten    --      9.8756                39.2110                 0.5104

                     79                     80                     81
                      A                      A                      A
 Frequencies --   1482.8122              1486.3833              1497.1005
 Red. masses --      1.4832                 1.3859                 1.1039
 Frc consts  --      1.9214                 1.8040                 1.4577
 IR Inten    --     38.9728                23.8135                14.5361

                     82                     83                     84
                      A                      A                      A
 Frequencies --   1508.2332              1545.2844              1609.4882
 Red. masses --      1.0593                 3.3175                 6.1703
 Frc consts  --      1.4198                 4.6675                 9.4175
 IR Inten    --     12.0593                24.6063                32.6052

                     85                     86                     87
                      A                      A                      A
 Frequencies --   1621.7638              1631.1488              1652.3600
 Red. masses --      1.1167                 5.4097                 1.1153
 Frc consts  --      1.7304                 8.4802                 1.7941
 IR Inten    --    196.3428               110.8131               154.5374

                     88                     89                     90
                      A                      A                      A
 Frequencies --   1662.7520              1703.5775              3050.2274
 Red. masses --      5.0925                 4.6345                 1.0347
 Frc consts  --      8.2953                 7.9246                 5.6720
 IR Inten    --      7.6477                 5.1345                24.6594

                     91                     92                     93
                      A                      A                      A
 Frequencies --   3063.1350              3128.9751              3134.7636
 Red. masses --      1.0376                 1.1030                 1.1026
 Frc consts  --      5.7359                 6.3628                 6.3838
 IR Inten    --     24.7431                 9.1750                43.5427

                     94                     95                     96
                      A                      A                      A
 Frequencies --   3141.5988              3153.8644              3157.3417
 Red. masses --      1.1039                 1.0584                 1.1013
 Frc consts  --      6.4191                 6.2028                 6.4686
 IR Inten    --     27.4774                 9.9652                29.8748

                     97                     98                     99
                      A                      A                      A
 Frequencies --   3169.0226              3193.4599              3206.4373
 Red. masses --      1.0928                 1.0876                 1.0917
 Frc consts  --      6.4661                 6.5347                 6.6130
 IR Inten    --     12.4818                 7.3936                19.3682

                    100                    101                    102
                      A                      A                      A
 Frequencies --   3218.9915              3224.6437              3228.8075
 Red. masses --      1.0920                 1.0931                 1.0941
 Frc consts  --      6.6665                 6.6968                 6.7203
 IR Inten    --      4.3131                 9.8305                11.0342

                    103                    104                    105
                      A                      A                      A
 Frequencies --   3244.6895              3267.8954              3691.0587
 Red. masses --      1.1167                 1.0915                 1.0544
 Frc consts  --      6.9270                 6.8679                 8.4637
 IR Inten    --     14.3187                 5.5051               486.1559

                    106                    107                    108
                      A                      A                      A
 Frequencies --   3781.5595              3865.6726              3881.2143
 Red. masses --      1.0456                 1.0737                 1.0813
 Frc consts  --      8.8093                 9.4532                 9.5969
 IR Inten    --     84.2212               130.0633                79.2464

 - Thermochemistry -
 -------------------
 Temperature   298.150 Kelvin.  Pressure   1.00000 Atm.
 Atom     1 has atomic number  6 and mass  12.00000

 Molecular mass:   282.10227 amu.
 Principal axes and moments of inertia in atomic units:
                           1         2         3
     Eigenvalues --  3918.409757538.934868784.49028
           X            0.99961  -0.02393  -0.01437
           Y            0.02393   0.99971  -0.00050
           Z            0.01438   0.00016   0.99990
 This molecule is an asymmetric top.
 Rotational symmetry number  1.
 Warning -- assumption of classical behavior for rotation
           may cause significant error
 Rotational temperatures (Kelvin)      0.02210     0.01149     0.00986
 Rotational constants (GHZ):           0.46058     0.23939     0.20545
 Zero-point vibrational energy     803126.2 (Joules/Mol)
                                  191.95177 (Kcal/Mol)
 Warning -- explicit consideration of  37 degrees of freedom as
           vibrations may cause significant error
 Vibrational temperatures:     33.47    47.71    52.40    71.16    76.71
          (Kelvin)             88.53   139.79   149.59   166.81   180.16
                              192.14   198.46   208.41   218.99   240.90
                              274.22   292.52   301.65   327.58   383.25
                              407.87   422.51   463.34   472.70   525.84
                              542.08   565.47   602.69   615.87   630.50
                              675.13   715.77   738.74   766.33   798.47
                              849.32   857.86   922.93   953.11   998.22
                             1060.40  1100.72  1105.44  1119.74  1155.57
                             1185.18  1254.02  1267.05  1341.15  1355.07
                             1368.19  1385.04  1395.69  1416.09  1452.69
                             1475.91  1484.80  1517.53  1525.96  1571.82
                             1664.81  1689.50  1711.75  1720.85  1740.06
                             1768.52  1800.07  1827.44  1859.22  1913.92
                             1955.39  2011.61  2024.62  2028.24  2056.00
                             2081.05  2104.47  2126.82  2133.43  2138.57
                             2153.99  2170.01  2223.32  2315.69  2333.35
                             2346.86  2377.37  2392.33  2451.06  4388.59
                             4407.16  4501.89  4510.22  4520.05  4537.70
                             4542.70  4559.51  4594.67  4613.34  4631.40
                             4639.54  4645.53  4668.38  4701.77  5310.60
                             5440.81  5561.83  5584.19

 Zero-point correction=                           0.305895 (Hartree/Particle)
 Thermal correction to Energy=                    0.329187
 Thermal correction to Enthalpy=                  0.330132
 Thermal correction to Gibbs Free Energy=         0.252022
 Sum of electronic and zero-point Energies=          -1268.707529
 Sum of electronic and thermal Energies=             -1268.684236
 Sum of electronic and thermal Enthalpies=           -1268.683292
 Sum of electronic and thermal Free Energies=        -1268.761401

                     E (Thermal)             CV                S
                      KCal/Mol        Cal/Mol-Kelvin    Cal/Mol-Kelvin
 Total                  206.568             83.512            164.396
 Electronic               0.000              0.000              0.000
 Translational            0.889              2.981             42.809
 Rotational               0.889              2.981             33.917
 Vibrational            204.791             77.550             87.669
 Vibration     1          0.593              1.985              6.334
 Vibration     2          0.594              1.983              5.631
 Vibration     3          0.594              1.982              5.445
 Vibration     4          0.595              1.978              4.839
 Vibration     5          0.596              1.976              4.690
 Vibration     6          0.597              1.973              4.407
 Vibration     7          0.603              1.951              3.510
 Vibration     8          0.605              1.946              3.379
 Vibration     9          0.608              1.936              3.167
 Vibration    10          0.610              1.928              3.018
 Vibration    11          0.613              1.920              2.894
 Vibration    12          0.614              1.915              2.832
 Vibration    13          0.616              1.908              2.739
 Vibration    14          0.619              1.900              2.644
 Vibration    15          0.624              1.883              2.464
 Vibration    16          0.634              1.853              2.222
 Vibration    17          0.639              1.835              2.103
 Vibration    18          0.642              1.826              2.047
 Vibration    19          0.651              1.799              1.897
 Vibration    20          0.672              1.735              1.620
 Vibration    21          0.682              1.704              1.513
 Vibration    22          0.688              1.686              1.453
 Vibration    23          0.707              1.631              1.300
 Vibration    24          0.712              1.618              1.267
 Vibration    25          0.739              1.543              1.099
 Vibration    26          0.747              1.520              1.052
 Vibration    27          0.760              1.485              0.989
 Vibration    28          0.782              1.429              0.896
 Vibration    29          0.790              1.409              0.865
 Vibration    30          0.798              1.387              0.832
 Vibration    31          0.826              1.318              0.740
 Vibration    32          0.853              1.256              0.664
 Vibration    33          0.869              1.220              0.625
 Vibration    34          0.888              1.178              0.581
 Vibration    35          0.910              1.129              0.534
 Vibration    36          0.948              1.052              0.467
 Vibration    37          0.954              1.040              0.456

 Normal termination of Gaussian 09 at Thu Aug 27 23:42:18 2020.
