 Gaussian 09, Revision D.01,
 Gaussian 09:  ES64L-G09RevD.01 24-Apr-2013

 ----------------------------------------------------------------------
 # opt=(calcfc,ts,noeigentest) b3lyp/6-31+g(d,p) scrf=(cpcm,solvent=wat
 er) geom=connectivity empiricaldispersion=gd3
 ----------------------------------------------------------------------

 -------------------
 Title Card Required
 -------------------
 Symbolic Z-matrix:
 Charge =  0 Multiplicity = 1

 SCF Done:  E(RB3LYP) =  -1268.96578728     A.U. after   16 cycles

  Exact polarizability:   0.000   0.000   0.000   0.000   0.000   0.000
 Approx polarizability: 458.808  20.112 407.699  26.485 -14.401 249.124

 SCF Done:  E(RB3LYP) =  -1268.97824210     A.U. after   13 cycles
 SCF Done:  E(RB3LYP) =  -1268.98576091     A.U. after   13 cycles
 SCF Done:  E(RB3LYP) =  -1268.99029030     A.U. after   13 cycles
 SCF Done:  E(RB3LYP) =  -1268.99299370     A.U. after   13 cycles
 SCF Done:  E(RB3LYP) =  -1268.99453386     A.U. after   13 cycles
 SCF Done:  E(RB3LYP) =  -1268.99528230     A.U. after   13 cycles
 SCF Done:  E(RB3LYP) =  -1268.99538116     A.U. after   13 cycles
 SCF Done:  E(RB3LYP) =  -1268.99545039     A.U. after   13 cycles
 SCF Done:  E(RB3LYP) =  -1268.99570426     A.U. after   12 cycles
 SCF Done:  E(RB3LYP) =  -1268.99583606     A.U. after   13 cycles
 SCF Done:  E(RB3LYP) =  -1268.99593622     A.U. after   12 cycles
 SCF Done:  E(RB3LYP) =  -1268.99605369     A.U. after   12 cycles
 SCF Done:  E(RB3LYP) =  -1268.99610674     A.U. after   12 cycles
 SCF Done:  E(RB3LYP) =  -1268.99612168     A.U. after   11 cycles
 SCF Done:  E(RB3LYP) =  -1268.99612323     A.U. after   11 cycles
 SCF Done:  E(RB3LYP) =  -1268.99612408     A.U. after   10 cycles
 SCF Done:  E(RB3LYP) =  -1268.99612484     A.U. after   10 cycles
 SCF Done:  E(RB3LYP) =  -1268.99612516     A.U. after   10 cycles
 SCF Done:  E(RB3LYP) =  -1268.99612534     A.U. after   10 cycles
 Optimization completed.
    -- Stationary point found.

                         Standard orientation:
 ---------------------------------------------------------------------
 Center     Atomic      Atomic             Coordinates (Angstroms)
 Number     Number       Type             X           Y           Z
 ---------------------------------------------------------------------
      1          6           0        2.708640    2.739258   -0.354040
      2          6           0        3.089881    1.420956   -0.179930
      3          6           0        2.131877    0.418805    0.122198
      4          6           0        0.755669    0.798691    0.232879
      5          6           0        0.400082    2.155000    0.058971
      6          6           0        1.353553    3.113816   -0.231410
      7          1           0        3.459351    3.489619   -0.583186
      8          1           0        4.134521    1.146582   -0.269797
      9          1           0       -0.645105    2.427705    0.148948
     10          1           0        1.061467    4.150750   -0.366044
     11          6           0       -0.264690   -0.194801    0.557667
     12          6           0        2.467121   -0.962699    0.333573
     13          6           0        0.147995   -1.542245    0.707655
     14          1           0       -0.577008   -2.269945    1.051298
     15          6           0        1.518031   -1.903544    0.635969
     16          1           0        1.807100   -2.935558    0.802682
     17          8           0       -1.511931    0.132298    0.631469
     18         17           0        4.154665   -1.480645    0.220681
     19          6           0       -2.542471   -0.359379   -1.462504
     20          6           0       -2.066695   -1.678286   -1.376289
     21          1           0       -2.737809   -2.416526   -0.944175
     22          6           0       -3.950127   -0.054577   -1.065421
     23          1           0       -4.545546    0.137428   -1.969011
     24          1           0       -4.409701   -0.868411   -0.502234
     25          1           0       -3.981988    0.858682   -0.463008
     26          6           0       -1.820394    0.719618   -2.206495
     27          1           0       -0.735358    0.620397   -2.173863
     28          1           0       -2.129514    0.671490   -3.260077
     29          1           0       -2.096433    1.704750   -1.826301
     30          6           0       -0.759065   -2.047520   -1.596359
     31          1           0       -0.452425   -3.080141   -1.475683
     32          1           0       -0.030898   -1.384248   -2.047042
     33          8           0       -3.269730    1.869019    1.919638
     34          1           0       -2.515637    1.506713    1.414570
     35          1           0       -3.704679    1.059360    2.233632
     36          8           0       -3.444377   -1.132847    2.074923
     37          1           0       -3.059863   -1.508530    2.877456
     38          1           0       -2.677924   -0.825466    1.533241
 ---------------------------------------------------------------------

 The electronic state is 1-A.
 Alpha  occ. eigenvalues -- -101.56306 -19.15289 -19.14777 -19.14572 -10.26319
 Alpha  occ. eigenvalues --  -10.26288 -10.26093 -10.23343 -10.22548 -10.21395
 Alpha  occ. eigenvalues --  -10.21323 -10.21012 -10.20874 -10.20661 -10.20558
 Alpha  occ. eigenvalues --  -10.20450 -10.20377 -10.19704 -10.19372  -9.47777
 Alpha  occ. eigenvalues --   -7.24166  -7.23228  -7.23196  -1.02675  -1.00322
 Alpha  occ. eigenvalues --   -0.99601  -0.90237  -0.86152  -0.84909  -0.82187
 Alpha  occ. eigenvalues --   -0.76894  -0.76719  -0.75783  -0.71433  -0.71002
 Alpha  occ. eigenvalues --   -0.64553  -0.63751  -0.63303  -0.58550  -0.54457
 Alpha  occ. eigenvalues --   -0.53718  -0.52693  -0.52225  -0.51131  -0.49948
 Alpha  occ. eigenvalues --   -0.49451  -0.47400  -0.46637  -0.46508  -0.44931
 Alpha  occ. eigenvalues --   -0.43830  -0.43793  -0.42320  -0.42086  -0.41521
 Alpha  occ. eigenvalues --   -0.40375  -0.40184  -0.39479  -0.39234  -0.38677
 Alpha  occ. eigenvalues --   -0.37952  -0.37429  -0.36801  -0.36564  -0.36327
 Alpha  occ. eigenvalues --   -0.35277  -0.32406  -0.31437  -0.31174  -0.30671
 Alpha  occ. eigenvalues --   -0.30159  -0.27764  -0.27387  -0.25808  -0.21335
 Alpha virt. eigenvalues --   -0.10553  -0.05275  -0.03095  -0.00158   0.00082
 Alpha virt. eigenvalues --    0.00988   0.01277   0.01624   0.02052   0.02460
 Alpha virt. eigenvalues --    0.02849   0.03433   0.03668   0.04593   0.04978

 Mulliken charges:
               1
     1  C   -0.494402
     2  C   -0.489990
     3  C    0.841552
     4  C    0.392103
     5  C   -0.281604
     6  C   -0.498922
     7  H    0.149903
     8  H    0.153324
     9  H    0.141969
    10  H    0.146959
    11  C   -0.115346
    12  C   -0.123554
    13  C    0.220185
    14  H    0.166397
    15  C   -0.559131
    16  H    0.158237
    17  O   -0.707361
    18  Cl   0.227887
    19  C    0.564124
    20  C   -0.019647
    21  H    0.149390
    22  C   -0.547910
    23  H    0.182217
    24  H    0.172207
    25  H    0.187377
    26  C   -0.656180
    27  H    0.163308
    28  H    0.190338
    29  H    0.174844
    30  C   -0.317854
    31  H    0.184258
    32  H    0.179873
    33  O   -0.781500
    34  H    0.437159
    35  H    0.392019
    36  O   -0.834509
    37  H    0.382130
    38  H    0.470147
 Sum of Mulliken charges =   0.00000

 Dipole moment (field-independent basis, Debye):
    X=              1.1177    Y=             -3.6538    Z=             -5.6478  Tot=              6.8188
 Quadrupole moment (field-independent basis, Debye-Ang):
   XX=           -140.3534   YY=           -115.5614   ZZ=           -120.9395
   XY=             14.4430   XZ=             13.5373   YZ=            -10.3543

 Normal termination of Gaussian 09 at Thu Aug 27 21:24:36 2020.
