 Gaussian 09, Revision D.01,
 Gaussian 09:  ES64L-G09RevD.01 24-Apr-2013

 ----------------------------------------------------------------------
 # freq b3lyp/6-31+g(d,p) scrf=(cpcm,solvent=water) geom=connectivity e
 mpiricaldispersion=gd3
 ----------------------------------------------------------------------

 -------------------
 Title Card Required
 -------------------
 Symbolic Z-matrix:
 Charge =  0 Multiplicity = 1

                         Standard orientation:
 ---------------------------------------------------------------------
 Center     Atomic      Atomic             Coordinates (Angstroms)
 Number     Number       Type             X           Y           Z
 ---------------------------------------------------------------------
      1          6           0       -2.708640    2.739258    0.354040
      2          6           0       -3.089881    1.420956    0.179930
      3          6           0       -2.131877    0.418805   -0.122198
      4          6           0       -0.755669    0.798691   -0.232879
      5          6           0       -0.400082    2.155000   -0.058971
      6          6           0       -1.353553    3.113816    0.231410
      7          1           0       -3.459351    3.489619    0.583186
      8          1           0       -4.134521    1.146582    0.269797
      9          1           0        0.645105    2.427705   -0.148948
     10          1           0       -1.061467    4.150750    0.366044
     11          6           0        0.264690   -0.194801   -0.557667
     12          6           0       -2.467121   -0.962699   -0.333573
     13          6           0       -0.147995   -1.542245   -0.707655
     14          1           0        0.577008   -2.269945   -1.051298
     15          6           0       -1.518031   -1.903544   -0.635969
     16          1           0       -1.807100   -2.935558   -0.802682
     17          8           0        1.511931    0.132298   -0.631469
     18         17           0       -4.154665   -1.480645   -0.220681
     19          6           0        2.542471   -0.359379    1.462504
     20          6           0        2.066695   -1.678286    1.376289
     21          1           0        2.737809   -2.416526    0.944175
     22          6           0        3.950127   -0.054577    1.065421
     23          1           0        4.545546    0.137428    1.969011
     24          1           0        4.409701   -0.868411    0.502234
     25          1           0        3.981988    0.858682    0.463008
     26          6           0        1.820394    0.719618    2.206495
     27          1           0        0.735358    0.620397    2.173863
     28          1           0        2.129514    0.671490    3.260077
     29          1           0        2.096433    1.704750    1.826301
     30          6           0        0.759065   -2.047520    1.596359
     31          1           0        0.452425   -3.080141    1.475683
     32          1           0        0.030898   -1.384248    2.047042
     33          8           0        3.269730    1.869019   -1.919638
     34          1           0        2.515637    1.506713   -1.414570
     35          1           0        3.704679    1.059360   -2.233632
     36          8           0        3.444377   -1.132847   -2.074923
     37          1           0        3.059863   -1.508530   -2.877456
     38          1           0        2.677924   -0.825466   -1.533241
 ---------------------------------------------------------------------

 SCF Done:  E(RB3LYP) =  -1268.99612534     A.U. after   16 cycles

 The electronic state is 1-A.
 Alpha  occ. eigenvalues -- -101.56306 -19.15289 -19.14777 -19.14572 -10.26319
 Alpha  occ. eigenvalues --  -10.26288 -10.26093 -10.23343 -10.22548 -10.21395
 Alpha  occ. eigenvalues --  -10.21323 -10.21012 -10.20874 -10.20661 -10.20558
 Alpha  occ. eigenvalues --  -10.20450 -10.20377 -10.19704 -10.19372  -9.47777
 Alpha  occ. eigenvalues --   -7.24166  -7.23229  -7.23196  -1.02676  -1.00322
 Alpha  occ. eigenvalues --   -0.99601  -0.90237  -0.86152  -0.84909  -0.82187
 Alpha  occ. eigenvalues --   -0.76894  -0.76719  -0.75783  -0.71433  -0.71002
 Alpha  occ. eigenvalues --   -0.64553  -0.63751  -0.63303  -0.58550  -0.54457
 Alpha  occ. eigenvalues --   -0.53718  -0.52693  -0.52225  -0.51131  -0.49948
 Alpha  occ. eigenvalues --   -0.49451  -0.47400  -0.46637  -0.46508  -0.44931
 Alpha  occ. eigenvalues --   -0.43830  -0.43793  -0.42320  -0.42086  -0.41521
 Alpha  occ. eigenvalues --   -0.40375  -0.40184  -0.39479  -0.39234  -0.38677
 Alpha  occ. eigenvalues --   -0.37952  -0.37429  -0.36801  -0.36564  -0.36327
 Alpha  occ. eigenvalues --   -0.35277  -0.32406  -0.31437  -0.31174  -0.30671
 Alpha  occ. eigenvalues --   -0.30159  -0.27764  -0.27387  -0.25808  -0.21335
 Alpha virt. eigenvalues --   -0.10553  -0.05275  -0.03095  -0.00158   0.00082
 Alpha virt. eigenvalues --    0.00988   0.01277   0.01624   0.02052   0.02460
 Alpha virt. eigenvalues --    0.02849   0.03433   0.03668   0.04593   0.04978

 Mulliken charges:
               1
     1  C   -0.494402
     2  C   -0.489990
     3  C    0.841551
     4  C    0.392103
     5  C   -0.281606
     6  C   -0.498921
     7  H    0.149903
     8  H    0.153324
     9  H    0.141969
    10  H    0.146959
    11  C   -0.115346
    12  C   -0.123552
    13  C    0.220185
    14  H    0.166397
    15  C   -0.559131
    16  H    0.158237
    17  O   -0.707360
    18  Cl   0.227887
    19  C    0.564124
    20  C   -0.019646
    21  H    0.149390
    22  C   -0.547910
    23  H    0.182217
    24  H    0.172207
    25  H    0.187377
    26  C   -0.656180
    27  H    0.163308
    28  H    0.190338
    29  H    0.174844
    30  C   -0.317854
    31  H    0.184258
    32  H    0.179873
    33  O   -0.781500
    34  H    0.437159
    35  H    0.392019
    36  O   -0.834508
    37  H    0.382130
    38  H    0.470147
 Sum of Mulliken charges =   0.00000

 Dipole moment (field-independent basis, Debye):
    X=             -1.1177    Y=             -3.6538    Z=              5.6477  Tot=              6.8188
 Quadrupole moment (field-independent basis, Debye-Ang):
   XX=           -140.3534   YY=           -115.5614   ZZ=           -120.9395
   XY=            -14.4430   XZ=             13.5373   YZ=             10.3543

  Exact polarizability: 453.914 -15.241 354.489  52.391   4.257 245.119
 Approx polarizability: 506.115  -5.382 408.430  56.943   6.644 284.694

 ******    1 imaginary frequencies (negative Signs) ******

                      1                      2                      3
                      A                      A                      A
 Frequencies --   -112.6088                32.6509                42.8161
 Red. masses --      5.1746                 5.3907                 5.1238
 Frc consts  --      0.0387                 0.0034                 0.0055
 IR Inten    --     43.3612                 1.9238                 3.7130

                      4                      5                      6
                      A                      A                      A
 Frequencies --     47.6166                60.3427                66.0000
 Red. masses --      6.9917                 4.5664                 5.8917
 Frc consts  --      0.0093                 0.0098                 0.0151
 IR Inten    --      6.5656                 2.6758                 5.9854

                      7                      8                      9
                      A                      A                      A
 Frequencies --     76.9566                79.4647               127.4086
 Red. masses --      6.6747                 5.4751                 4.3076
 Frc consts  --      0.0233                 0.0204                 0.0412
 IR Inten    --      8.3665                 0.5057                 0.6061

                     10                     11                     12
                      A                      A                      A
 Frequencies --    138.9321               155.2832               159.2784
 Red. masses --      1.6102                 1.6488                 4.9276
 Frc consts  --      0.0183                 0.0234                 0.0737
 IR Inten    --      9.3841                 4.6982                11.1794

                     13                     14                     15
                      A                      A                      A
 Frequencies --    159.9642               172.2284               182.9087
 Red. masses --      2.0883                 3.5089                 1.8562
 Frc consts  --      0.0315                 0.0613                 0.0366
 IR Inten    --     16.6564                28.4527                14.1865

                     16                     17                     18
                      A                      A                      A
 Frequencies --    186.5001               199.3930               226.7521
 Red. masses --      1.0774                 4.1293                 9.0909
 Frc consts  --      0.0221                 0.0967                 0.2754
 IR Inten    --    138.8391                10.8824                10.1841

                     19                     20                     21
                      A                      A                      A
 Frequencies --    255.0590               300.9207               329.3141
 Red. masses --      6.4806                 2.5968                 2.7506
 Frc consts  --      0.2484                 0.1385                 0.1757
 IR Inten    --     31.1520                16.4069                 4.6712

                     22                     23                     24
                      A                      A                      A
 Frequencies --    348.2625               360.6546               384.5909
 Red. masses --      5.5362                 6.0956                 1.3010
 Frc consts  --      0.3956                 0.4671                 0.1134
 IR Inten    --     30.9509                10.6209                69.6713

                     25                     26                     27
                      A                      A                      A
 Frequencies --    389.0495               404.6005               420.3107
 Red. masses --      3.4204                 1.0874                 2.3106
 Frc consts  --      0.3050                 0.1049                 0.2405
 IR Inten    --      8.9980                45.4569                 1.0671

                     28                     29                     30
                      A                      A                      A
 Frequencies --    428.7807               449.0637               467.1710
 Red. masses --      2.5986                 2.0953                 1.1886
 Frc consts  --      0.2815                 0.2490                 0.1528
 IR Inten    --     12.9096                12.7081               148.8201

                     31                     32                     33
                      A                      A                      A
 Frequencies --    481.8147               492.5252               531.6707
 Red. masses --      3.1669                 6.9754                 6.6174
 Frc consts  --      0.4332                 0.9970                 1.1021
 IR Inten    --     16.5895                 3.4848                13.8061

                     34                     35                     36
                      A                      A                      A
 Frequencies --    539.1378               589.0548               599.1769
 Red. masses --      2.7705                 5.0262                 3.4224
 Frc consts  --      0.4745                 1.0275                 0.7239
 IR Inten    --      4.3740                23.1515                 1.1026

                     37                     38                     39
                      A                      A                      A
 Frequencies --    634.4614               656.1410               682.5421
 Red. masses --      1.0867                 6.6482                 3.1235
 Frc consts  --      0.2577                 1.6864                 0.8573
 IR Inten    --    223.9345                72.3299                17.2429

                     40                     41                     42
                      A                      A                      A
 Frequencies --    706.4430               742.8632               774.8032
 Red. masses --      1.3666                 5.8339                 1.7422
 Frc consts  --      0.4018                 1.8968                 0.6162
 IR Inten    --     30.8538                41.6688                85.2719

                     43                     44                     45
                      A                      A                      A
 Frequencies --    783.7655               792.3502               797.3091
 Red. masses --      2.9689                 3.2396                 3.8529
 Frc consts  --      1.0745                 1.1983                 1.4431
 IR Inten    --     12.5895                 8.8832                19.4946

                     46                     47                     48
                      A                      A                      A
 Frequencies --    815.0934               855.7181               884.7057
 Red. masses --      1.0710                 1.3032                 1.5235
 Frc consts  --      0.4192                 0.5622                 0.7026
 IR Inten    --    161.5769               113.5019                 2.4633

                     49                     50                     51
                      A                      A                      A
 Frequencies --    920.9521               931.2811               946.4254
 Red. masses --      1.2449                 1.2558                 5.9964
 Frc consts  --      0.6221                 0.6417                 3.1646
 IR Inten    --      3.9507                62.7280                64.0160

                     52                     53                     54
                      A                      A                      A
 Frequencies --    981.4645               982.9701               999.7793
 Red. masses --      1.3456                 1.2917                 1.3102
 Frc consts  --      0.7637                 0.7353                 0.7716
 IR Inten    --      0.9766                18.1753                 9.1570

                     55                     56                     57
                      A                      A                      A
 Frequencies --   1006.6855              1008.7952              1016.8646
 Red. masses --      1.3052                 1.3552                 1.2806
 Frc consts  --      0.7793                 0.8126                 0.7802
 IR Inten    --      2.6249                25.6936                 6.3037

                     58                     59                     60
                      A                      A                      A
 Frequencies --   1053.2157              1076.6897              1089.5949
 Red. masses --      2.8136                 1.6749                 2.3458
 Frc consts  --      1.8389                 1.1440                 1.6409
 IR Inten    --     47.7335               157.0274                31.0064

                     61                     62                     63
                      A                      A                      A
 Frequencies --   1092.8623              1142.8222              1176.8262
 Red. masses --      1.5105                 2.0892                 1.5831
 Frc consts  --      1.0629                 1.6076                 1.2917
 IR Inten    --      7.8958                27.5394                 7.8240

                     64                     65                     66
                      A                      A                      A
 Frequencies --   1187.0553              1219.1409              1256.8863
 Red. masses --      1.2179                 1.7594                 2.7929
 Frc consts  --      1.0111                 1.5407                 2.5995
 IR Inten    --     18.9174                45.6439                25.6975

                     67                     68                     69
                      A                      A                      A
 Frequencies --   1274.2521              1304.0779              1331.0952
 Red. masses --      1.6166                 1.7457                 4.2314
 Frc consts  --      1.5466                 1.7492                 4.4173
 IR Inten    --     27.5653                41.0932                34.9671

                     70                     71                     72
                      A                      A                      A
 Frequencies --   1348.3239              1368.7083              1382.4764
 Red. masses --      2.1279                 1.5479                 6.1077
 Frc consts  --      2.2792                 1.7085                 6.8777
 IR Inten    --     50.1155                79.4883                13.8862

                     73                     74                     75
                      A                      A                      A
 Frequencies --   1404.8558              1409.8885              1422.6618
 Red. masses --      1.2461                 1.4201                 2.8410
 Frc consts  --      1.4490                 1.6631                 3.3879
 IR Inten    --     30.8028                57.2294               101.7629

                     76                     77                     78
                      A                      A                      A
 Frequencies --   1451.4227              1459.3858              1468.5088
 Red. masses --      1.0776                 1.1888                 2.8314
 Frc consts  --      1.3375                 1.4918                 3.5975
 IR Inten    --     24.9493                83.2213               100.4904

                     79                     80                     81
                      A                      A                      A
 Frequencies --   1475.3311              1479.7680              1504.7845
 Red. masses --      1.7599                 1.2759                 1.2373
 Frc consts  --      2.2569                 1.6461                 1.6507
 IR Inten    --     59.4004                24.2079               217.7255

                     82                     83                     84
                      A                      A                      A
 Frequencies --   1518.5698              1534.2782              1572.4990
 Red. masses --      1.5023                 2.9073                 3.3196
 Frc consts  --      2.0412                 4.0323                 4.8363
 IR Inten    --     64.5698                66.1497                73.9488

                     85                     86                     87
                      A                      A                      A
 Frequencies --   1606.8572              1616.3314              1647.1181
 Red. masses --      4.7449                 4.2586                 1.1248
 Frc consts  --      7.2183                 6.5551                 1.7980
 IR Inten    --    116.0623               241.4994               114.4114

                     88                     89                     90
                      A                      A                      A
 Frequencies --   1653.7426              1694.5958              3025.2792
 Red. masses --      4.6535                 1.0879                 1.0453
 Frc consts  --      7.4983                 1.8406                 5.6365
 IR Inten    --     25.9933               157.6984                11.1656

                     91                     92                     93
                      A                      A                      A
 Frequencies --   3032.7416              3096.3087              3118.6158
 Red. masses --      1.0510                 1.0903                 1.0829
 Frc consts  --      5.6956                 6.1589                 6.2051
 IR Inten    --     29.5320                 1.2679                 8.0871

                     94                     95                     96
                      A                      A                      A
 Frequencies --   3150.6518              3166.2205              3176.3486
 Red. masses --      1.1028                 1.1022                 1.0866
 Frc consts  --      6.4497                 6.5105                 6.4593
 IR Inten    --     14.1592                10.3287                31.4229

                     97                     98                     99
                      A                      A                      A
 Frequencies --   3189.3862              3189.9348              3203.4447
 Red. masses --      1.0624                 1.0872                 1.0915
 Frc consts  --      6.3674                 6.5181                 6.5994
 IR Inten    --      9.8995                 6.6280                23.3010

                    100                    101                    102
                      A                      A                      A
 Frequencies --   3209.8138              3221.6782              3224.6527
 Red. masses --      1.0904                 1.0922                 1.0942
 Frc consts  --      6.6192                 6.6789                 6.7038
 IR Inten    --     10.6835                16.3719                19.5817

                    103                    104                    105
                      A                      A                      A
 Frequencies --   3227.9335              3282.4640              3396.0486
 Red. masses --      1.0930                 1.1174                 1.0645
 Frc consts  --      6.7101                 7.0935                 7.2336
 IR Inten    --      6.6145                 2.1048              1465.4670

                    106                    107                    108
                      A                      A                      A
 Frequencies --   3624.7559              3767.3845              3861.5919
 Red. masses --      1.0574                 1.0700                 1.0675
 Frc consts  --      8.1853                 8.9477                 9.3793
 IR Inten    --    904.2700               266.3247               104.0192

 - Thermochemistry -
 -------------------
 Temperature   298.150 Kelvin.  Pressure   1.00000 Atm.
 Atom     1 has atomic number  6 and mass  12.00000

 Molecular mass:   282.10227 amu.
 Principal axes and moments of inertia in atomic units:
                           1         2         3
     Eigenvalues --  3789.157328044.782979286.84489
           X            0.99982  -0.01896   0.00025
           Y            0.01895   0.99966   0.01803
           Z           -0.00059  -0.01802   0.99984
 This molecule is an asymmetric top.
 Rotational symmetry number  1.
 Warning -- assumption of classical behavior for rotation
           may cause significant error
 Rotational temperatures (Kelvin)      0.02286     0.01077     0.00933
 Rotational constants (GHZ):           0.47629     0.22434     0.19433
    1 imaginary frequencies ignored.
 Zero-point vibrational energy     802676.0 (Joules/Mol)
                                  191.84417 (Kcal/Mol)
 Warning -- explicit consideration of  35 degrees of freedom as
           vibrations may cause significant error
 Vibrational temperatures:     46.98    61.60    68.51    86.82    94.96
          (Kelvin)            110.72   114.33   183.31   199.89   223.42
                              229.17   230.15   247.80   263.16   268.33
                              286.88   326.25   366.97   432.96   473.81
                              501.07   518.90   553.34   559.75   582.13
                              604.73   616.92   646.10   672.15   693.22
                              708.63   764.95   775.70   847.52   862.08
                              912.85   944.04   982.02  1016.41  1068.81
                             1114.77  1127.66  1140.01  1147.15  1172.74
                             1231.19  1272.89  1325.04  1339.90  1361.69
                             1412.11  1414.27  1438.46  1448.39  1451.43
                             1463.04  1515.34  1549.11  1567.68  1572.38
                             1644.26  1693.19  1707.91  1754.07  1808.38
                             1833.36  1876.27  1915.15  1939.93  1969.26
                             1989.07  2021.27  2028.51  2046.89  2088.27
                             2099.73  2112.85  2122.67  2129.05  2165.05
                             2184.88  2207.48  2262.47  2311.91  2325.54
                             2369.83  2379.36  2438.14  4352.70  4363.43
                             4454.89  4486.99  4533.08  4555.48  4570.05
                             4588.81  4589.60  4609.04  4618.20  4635.27
                             4639.55  4644.27  4722.73  4886.15  5215.21
                             5420.42  5555.96

 Zero-point correction=                           0.305723 (Hartree/Particle)
 Thermal correction to Energy=                    0.327427
 Thermal correction to Enthalpy=                  0.328371
 Thermal correction to Gibbs Free Energy=         0.254823
 Sum of electronic and zero-point Energies=          -1268.690402
 Sum of electronic and thermal Energies=             -1268.668699
 Sum of electronic and thermal Enthalpies=           -1268.667755
 Sum of electronic and thermal Free Energies=        -1268.741303

                     E (Thermal)             CV                S
                      KCal/Mol        Cal/Mol-Kelvin    Cal/Mol-Kelvin
 Total                  205.463             80.277            154.795
 Electronic               0.000              0.000              0.000
 Translational            0.889              2.981             42.809
 Rotational               0.889              2.981             34.003
 Vibrational            203.686             74.315             77.982
 Vibration     1          0.594              1.983              5.661
 Vibration     2          0.595              1.980              5.124
 Vibration     3          0.595              1.978              4.914
 Vibration     4          0.597              1.973              4.446
 Vibration     5          0.597              1.970              4.269
 Vibration     6          0.599              1.965              3.967
 Vibration     7          0.600              1.963              3.904
 Vibration     8          0.611              1.926              2.985
 Vibration     9          0.615              1.914              2.819
 Vibration    10          0.620              1.897              2.606
 Vibration    11          0.621              1.892              2.558
 Vibration    12          0.622              1.891              2.550
 Vibration    13          0.626              1.877              2.411
 Vibration    14          0.630              1.863              2.299
 Vibration    15          0.632              1.858              2.262
 Vibration    16          0.638              1.841              2.139
 Vibration    17          0.650              1.800              1.905
 Vibration    18          0.665              1.754              1.695
 Vibration    19          0.693              1.672              1.412
 Vibration    20          0.712              1.617              1.263
 Vibration    21          0.726              1.579              1.174
 Vibration    22          0.735              1.553              1.119
 Vibration    23          0.754              1.503              1.021
 Vibration    24          0.757              1.494              1.004
 Vibration    25          0.770              1.460              0.946
 Vibration    26          0.783              1.426              0.891
 Vibration    27          0.790              1.408              0.863
 Vibration    28          0.808              1.363              0.799
 Vibration    29          0.824              1.323              0.746
 Vibration    30          0.838              1.290              0.705
 Vibration    31          0.848              1.267              0.677
 Vibration    32          0.887              1.180              0.583
 Vibration    33          0.894              1.164              0.567
 Vibration    34          0.946              1.055              0.469
 Vibration    35          0.957              1.034              0.451

 Normal termination of Gaussian 09 at Thu Aug 27 23:30:22 2020.
