 Gaussian 09, Revision D.01,
 Gaussian 09:  ES64L-G09RevD.01 24-Apr-2013

 ----------------------------------------------------
 # opt freq scrf=(cpcm,solvent=ethanol) def2svp m062x
 ----------------------------------------------------

 -------
 CH2NO2H
 -------
 Symbolic Z-matrix:
 Charge =  0 Multiplicity = 1

 SCF Done:  E(RM062X) =  -244.665645820     A.U. after   13 cycles
 SCF Done:  E(RM062X) =  -244.689985154     A.U. after   13 cycles
 SCF Done:  E(RM062X) =  -244.695646115     A.U. after   13 cycles
 SCF Done:  E(RM062X) =  -244.695960182     A.U. after   12 cycles
 SCF Done:  E(RM062X) =  -244.697080730     A.U. after   12 cycles
 SCF Done:  E(RM062X) =  -244.697431753     A.U. after   12 cycles
 SCF Done:  E(RM062X) =  -244.697663973     A.U. after   12 cycles
 SCF Done:  E(RM062X) =  -244.697713439     A.U. after   11 cycles
 SCF Done:  E(RM062X) =  -244.697702777     A.U. after   11 cycles
 SCF Done:  E(RM062X) =  -244.697732088     A.U. after    8 cycles
 SCF Done:  E(RM062X) =  -244.697739950     A.U. after   11 cycles
 Optimization completed.
    -- Stationary point found.
 Normal termination of Gaussian 09 at Sun Nov  1 21:57:03 2020.

 -------------------------------------------------------------------
 #N Geom=AllCheck Guess=TCheck SCRF=Check GenChk RM062X/def2SVP Freq
 -------------------------------------------------------------------

 Structure from the checkpoint file:  "CH2NO2H_opt.chk"
 -------
 CH2NO2H
 -------
 Charge =  0 Multiplicity = 1

                         Standard orientation:
 ---------------------------------------------------------------------
 Center     Atomic      Atomic             Coordinates (Angstroms)
 Number     Number       Type             X           Y           Z
 ---------------------------------------------------------------------
      1          7           0       -0.062393    0.091554   -0.000146
      2          8           0        0.429025    1.223463    0.000050
      3          8           0        0.840626   -0.946215    0.000347
      4          6           0       -1.306377   -0.264735   -0.000132
      5          1           0       -2.039600    0.535373    0.000852
      6          1           0       -1.537902   -1.324514   -0.000584
      7          1           0        1.695301   -0.481313   -0.001629
 ---------------------------------------------------------------------

 SCF Done:  E(RM062X) =  -244.697739950     A.U. after    1 cycles

 The electronic state is 1-A.
 Alpha  occ. eigenvalues --  -19.69900 -19.63092 -14.97329 -10.59844  -1.31875
 Alpha  occ. eigenvalues --   -1.14839  -0.96395  -0.72456  -0.63402  -0.60463
 Alpha  occ. eigenvalues --   -0.60189  -0.52557  -0.50175  -0.42028  -0.36732
 Alpha  occ. eigenvalues --   -0.30066
 Alpha virt. eigenvalues --    0.02030   0.10647   0.14104   0.15167   0.21162
 Alpha virt. eigenvalues --    0.26180   0.33874   0.46259   0.53199   0.59642
 Alpha virt. eigenvalues --    0.64422   0.65820   0.70244   0.71517   0.76058

 Mulliken charges:
               1
     1  N    0.217101
     2  O   -0.420354
     3  O   -0.203910
     4  C   -0.010878
     5  H    0.098956
     6  H    0.098686
     7  H    0.220399
 Sum of Mulliken charges =   0.00000

 Dipole moment (field-independent basis, Debye):
    X=             -0.7456    Y=             -1.9720    Z=             -0.0036  Tot=              2.1082
 Quadrupole moment (field-independent basis, Debye-Ang):
   XX=            -16.2419   YY=            -27.0659   ZZ=            -23.8394
   XY=             -0.9004   XZ=             -0.0088   YZ=              0.0036

  Exact polarizability:  49.707   7.609  34.703  -0.005   0.002  14.169
 Approx polarizability:  48.541  10.771  38.371  -0.003   0.001  14.897

                      1                      2                      3
                      A                      A                      A
 Frequencies --    326.0047               525.7070               615.6771
 Red. masses --      1.1107                 2.5873                 4.9475
 Frc consts  --      0.0695                 0.4213                 1.1049
 IR Inten    --    163.2640                 2.3614                31.8403

                      4                      5                      6
                      A                      A                      A
 Frequencies --    669.4340               713.4143               795.2422
 Red. masses --      1.3209                 2.0353                 1.6584
 Frc consts  --      0.3488                 0.6103                 0.6179
 IR Inten    --      9.2245                 0.0471               108.8966

                      7                      8                      9
                      A                      A                      A
 Frequencies --    922.5308              1112.5077              1329.0258
 Red. masses --      4.4840                 1.9476                 1.4782
 Frc consts  --      2.2484                 1.4202                 1.5383
 IR Inten    --    167.3827                65.3070               166.0786

                     10                     11                     12
                      A                      A                      A
 Frequencies --   1356.3854              1465.2556              1799.4655
 Red. masses --      1.9235                 1.6760                 5.1095
 Frc consts  --      2.0851                 2.1201                 9.7479
 IR Inten    --    193.6887                93.5376               484.3650

                     13                     14                     15
                      A                      A                      A
 Frequencies --   3224.2549              3377.0466              3773.4757
 Red. masses --      1.0523                 1.1312                 1.0663
 Frc consts  --      6.4451                 7.6006                 8.9456
 IR Inten    --     34.9339                15.1947               251.8729

 - Thermochemistry -
 -------------------
 Temperature   298.150 Kelvin.  Pressure   1.00000 Atm.
 Atom     1 has atomic number  7 and mass  14.00307

 Molecular mass:    61.01638 amu.
 Principal axes and moments of inertia in atomic units:
                           1         2         3
     Eigenvalues --   148.11205 157.86550 305.97751
           X            0.99816   0.06056  -0.00008
           Y           -0.06056   0.99816   0.00005
           Z            0.00008  -0.00004   1.00000
 This molecule is an asymmetric top.
 Rotational symmetry number  1.
 Rotational temperatures (Kelvin)      0.58479     0.54866     0.28307
 Rotational constants (GHZ):          12.18497    11.43214     5.89828
 Zero-point vibrational energy     131621.7 (Joules/Mol)
                                   31.45834 (Kcal/Mol)
 Warning -- explicit consideration of   3 degrees of freedom as
           vibrations may cause significant error
 Vibrational temperatures:    469.05   756.37   885.82   963.17  1026.44
          (Kelvin)           1144.17  1327.31  1600.65  1912.17  1951.53
                             2108.17  2589.03  4638.98  4858.81  5429.18

 Zero-point correction=                           0.050132 (Hartree/Particle)
 Thermal correction to Energy=                    0.054123
 Thermal correction to Enthalpy=                  0.055067
 Thermal correction to Gibbs Free Energy=         0.024123
 Sum of electronic and zero-point Energies=           -244.647608
 Sum of electronic and thermal Energies=              -244.643617
 Sum of electronic and thermal Enthalpies=            -244.642673
 Sum of electronic and thermal Free Energies=         -244.673617

                     E (Thermal)             CV                S
                      KCal/Mol        Cal/Mol-Kelvin    Cal/Mol-Kelvin
 Total                   33.962             13.235             65.127
 Electronic               0.000              0.000              0.000
 Translational            0.889              2.981             38.245
 Rotational               0.889              2.981             23.485
 Vibrational             32.185              7.273              3.396
 Vibration     1          0.710              1.623              1.280
 Vibration     2          0.881              1.193              0.597
 Vibration     3          0.975              0.999              0.423

 Optimization completed.
    -- Stationary point found.
 Normal termination of Gaussian 09 at Sun Nov  1 21:57:24 2020.
