 Gaussian 09, Revision D.01,
 Gaussian 09:  ES64L-G09RevD.01 24-Apr-2013

 ----------------------------------------------------
 # opt freq scrf=(cpcm,solvent=ethanol) def2svp m062x
 ----------------------------------------------------

 -------------
 EtOH opt freq
 -------------
 Symbolic Z-matrix:
 Charge =  0 Multiplicity = 1

 SCF Done:  E(RM062X) =  -154.840151531     A.U. after   11 cycles
 SCF Done:  E(RM062X) =  -154.844032289     A.U. after    9 cycles
 SCF Done:  E(RM062X) =  -154.844180182     A.U. after    8 cycles
 SCF Done:  E(RM062X) =  -154.844192750     A.U. after    8 cycles
 Optimization completed.
    -- Stationary point found.
 Normal termination of Gaussian 09 at Sun Nov  1 21:56:34 2020.

 -------------------------------------------------------------------
 #N Geom=AllCheck Guess=TCheck SCRF=Check GenChk RM062X/def2SVP Freq
 -------------------------------------------------------------------

 Structure from the checkpoint file:  "EtOH_opt.chk"
 -------------
 EtOH opt freq
 -------------
 Charge =  0 Multiplicity = 1

                         Standard orientation:
 ---------------------------------------------------------------------
 Center     Atomic      Atomic             Coordinates (Angstroms)
 Number     Number       Type             X           Y           Z
 ---------------------------------------------------------------------
      1          8           0       -1.144171   -0.396709   -0.000147
      2          1           0       -1.978608    0.085513    0.001065
      3          6           0       -0.089976    0.542067   -0.000067
      4          1           0       -0.141448    1.197466   -0.888756
      5          1           0       -0.141642    1.197575    0.888519
      6          6           0        1.218509   -0.218488    0.000072
      7          1           0        1.285158   -0.859817   -0.890526
      8          1           0        2.073588    0.470948   -0.000055
      9          1           0        1.285123   -0.859491    0.890900
 ---------------------------------------------------------------------

 SCF Done:  E(RM062X) =  -154.844192750     A.U. after    1 cycles

 The electronic state is 1-A.
 Alpha  occ. eigenvalues --  -19.62001 -10.59135 -10.53969  -1.11974  -0.83178
 Alpha  occ. eigenvalues --   -0.68235  -0.58889  -0.53493  -0.47245  -0.44251
 Alpha  occ. eigenvalues --   -0.42820  -0.39424  -0.33960
 Alpha virt. eigenvalues --    0.09908   0.13052   0.16367   0.16947   0.18464
 Alpha virt. eigenvalues --    0.20660   0.25665   0.28073   0.47739   0.48669
 Alpha virt. eigenvalues --    0.51858   0.56369   0.62040   0.65106   0.69675

 Mulliken charges:
               1
     1  O   -0.389808
     2  H    0.200865
     3  C    0.101450
     4  H    0.030636
     5  H    0.030681
     6  C   -0.120213
     7  H    0.047316
     8  H    0.051765
     9  H    0.047307
 Sum of Mulliken charges =   0.00000

 Dipole moment (field-independent basis, Debye):
    X=             -0.3139    Y=              1.8841    Z=              0.0025  Tot=              1.9101
 Quadrupole moment (field-independent basis, Debye-Ang):
   XX=            -16.5233   YY=            -20.4614   ZZ=            -19.9147
   XY=             -1.9142   XZ=             -0.0053   YZ=              0.0005

  Exact polarizability:  34.399  -0.766  31.649  -0.004   0.000  30.101
 Approx polarizability:  29.834   0.001  28.604  -0.004   0.001  26.722

                      1                      2                      3
                      A                      A                      A
 Frequencies --    245.2748               279.3497               421.5782
 Red. masses --      1.1421                 1.0775                 2.5325
 Frc consts  --      0.0405                 0.0495                 0.2652
 IR Inten    --    133.3787                47.1967                15.0603

                      4                      5                      6
                      A                      A                      A
 Frequencies --    809.2999               925.9311              1055.3173
 Red. masses --      1.0769                 1.9128                 1.7226
 Frc consts  --      0.4156                 0.9662                 1.1303
 IR Inten    --      0.1098                 9.0676                40.9073

                      7                      8                      9
                      A                      A                      A
 Frequencies --   1156.7086              1180.7391              1267.1068
 Red. masses --      2.8509                 1.5885                 1.3039
 Frc consts  --      2.2474                 1.3048                 1.2334
 IR Inten    --     65.3555                 9.3367               137.8980

                     10                     11                     12
                      A                      A                      A
 Frequencies --   1301.7220              1375.4884              1448.5180
 Red. masses --      1.0859                 1.2644                 1.0389
 Frc consts  --      1.0841                 1.4095                 1.2843
 IR Inten    --      0.3469                 3.2695                10.4842

                     13                     14                     15
                      A                      A                      A
 Frequencies --   1459.2369              1473.1473              1517.5355
 Red. masses --      1.1823                 1.3249                 1.0998
 Frc consts  --      1.4833                 1.6941                 1.4923
 IR Inten    --     12.1148                 9.1563                 4.7009

                     16                     17                     18
                      A                      A                      A
 Frequencies --   3024.5191              3058.8968              3063.4189
 Red. masses --      1.0579                 1.0368                 1.1083
 Frc consts  --      5.7019                 5.7157                 6.1282
 IR Inten    --     84.1442                16.7668                81.6964

                     19                     20                     21
                      A                      A                      A
 Frequencies --   3151.3162              3161.0608              3887.2812
 Red. masses --      1.1052                 1.1048                 1.0669
 Frc consts  --      6.4667                 6.5045                 9.4984
 IR Inten    --     38.3088                24.3700                82.1346

 - Thermochemistry -
 -------------------
 Temperature   298.150 Kelvin.  Pressure   1.00000 Atm.
 Atom     1 has atomic number  8 and mass  15.99491

 Molecular mass:    46.04186 amu.
 Principal axes and moments of inertia in atomic units:
                           1         2         3
     Eigenvalues --    51.12065 191.56117 219.89222
           X            0.99910  -0.04232  -0.00004
           Y            0.04232   0.99910  -0.00001
           Z            0.00004   0.00001   1.00000
 This molecule is an asymmetric top.
 Rotational symmetry number  1.
 Rotational temperatures (Kelvin)      1.69430     0.45215     0.39389
 Rotational constants (GHZ):          35.30357     9.42123     8.20739
 Zero-point vibrational energy     210922.2 (Joules/Mol)
                                   50.41163 (Kcal/Mol)
 Warning -- explicit consideration of   3 degrees of freedom as
           vibrations may cause significant error
 Vibrational temperatures:    352.90   401.92   606.56  1164.40  1332.21
          (Kelvin)           1518.36  1664.24  1698.82  1823.08  1872.89
                             1979.02  2084.09  2099.51  2119.53  2183.39
                             4351.60  4401.06  4407.57  4534.04  4548.06
                             5592.92

 Zero-point correction=                           0.080336 (Hartree/Particle)
 Thermal correction to Energy=                    0.084644
 Thermal correction to Enthalpy=                  0.085588
 Thermal correction to Gibbs Free Energy=         0.054936
 Sum of electronic and zero-point Energies=           -154.763857
 Sum of electronic and thermal Energies=              -154.759549
 Sum of electronic and thermal Enthalpies=            -154.758605
 Sum of electronic and thermal Free Energies=         -154.789257

                     E (Thermal)             CV                S
                      KCal/Mol        Cal/Mol-Kelvin    Cal/Mol-Kelvin
 Total                   53.115             13.498             64.513
 Electronic               0.000              0.000              0.000
 Translational            0.889              2.981             37.406
 Rotational               0.889              2.981             22.292
 Vibrational             51.337              7.537              4.814
 Vibration     1          0.660              1.771              1.764
 Vibration     2          0.680              1.712              1.538
 Vibration     3          0.784              1.423              0.887

 Optimization completed.
    -- Stationary point found.
 Normal termination of Gaussian 09 at Sun Nov  1 21:56:58 2020.
