 Gaussian 09, Revision D.01,
 Gaussian 09:  ES64L-G09RevD.01 24-Apr-2013

 ------------------------------------------------------------
 # opt freq scrf=(cpcm,solvent=ethanol) pop=nbo def2svp m062x
 ------------------------------------------------------------

 ----------
 Isatin opt
 ----------
 Symbolic Z-matrix:
 Charge =  0 Multiplicity = 1

 SCF Done:  E(RM062X) =  -551.655884121     A.U. after   15 cycles
 SCF Done:  E(RM062X) =  -551.713684946     A.U. after   13 cycles
 SCF Done:  E(RM062X) =  -551.752315253     A.U. after   14 cycles
 SCF Done:  E(RM062X) =  -551.758512229     A.U. after   13 cycles
 SCF Done:  E(RM062X) =  -551.759079881     A.U. after   13 cycles
 SCF Done:  E(RM062X) =  -551.758722481     A.U. after   12 cycles
 SCF Done:  E(RM062X) =  -551.759101186     A.U. after   12 cycles
 SCF Done:  E(RM062X) =  -551.758971272     A.U. after   13 cycles
 SCF Done:  E(RM062X) =  -551.759095394     A.U. after   12 cycles
 SCF Done:  E(RM062X) =  -551.759107451     A.U. after   11 cycles
 Optimization completed.
    -- Stationary point found.
 Normal termination of Gaussian 09 at Sun Nov  1 22:07:03 2020.

 -------------------------------------------------------------------
 #N Geom=AllCheck Guess=TCheck SCRF=Check GenChk RM062X/def2SVP Freq
 -------------------------------------------------------------------

 Structure from the checkpoint file:  "Isatin_opt.chk"
 ----------
 Isatin opt
 ----------
 Charge =  0 Multiplicity = 1

                         Standard orientation:
 ---------------------------------------------------------------------
 Center     Atomic      Atomic             Coordinates (Angstroms)
 Number     Number       Type             X           Y           Z
 ---------------------------------------------------------------------
      1          6           0       -2.735104    0.870599   -0.000042
      2          6           0       -1.465006    1.462217   -0.000038
      3          6           0       -0.367647    0.611546   -0.000005
      4          6           0       -0.535154   -0.785170    0.000032
      5          6           0       -1.798917   -1.361939    0.000053
      6          6           0       -2.911177   -0.516801   -0.000002
      7          1           0       -3.613559    1.518033   -0.000074
      8          1           0       -1.349306    2.545812   -0.000058
      9          1           0       -1.906299   -2.447805    0.000073
     10          1           0       -3.917741   -0.934542   -0.000013
     11          6           0        0.812110   -1.376685    0.000015
     12          6           0        1.785537   -0.155099   -0.000015
     13          7           0        0.990953    0.960920    0.000021
     14          8           0        2.989104   -0.202081   -0.000054
     15          8           0        1.177311   -2.520570   -0.000015
     16          6           0        1.488485    2.317201    0.000050
     17          1           0        1.148651    2.855409   -0.896090
     18          1           0        1.148421    2.855445    0.896080
     19          1           0        2.583093    2.267214    0.000193
 ---------------------------------------------------------------------

 SCF Done:  E(RM062X) =  -551.759107451     A.U. after    1 cycles

 The electronic state is 1-A.
 Alpha  occ. eigenvalues --  -19.65883 -19.63844 -14.81874 -10.67787 -10.66639
 Alpha  occ. eigenvalues --  -10.62461 -10.59819 -10.58577 -10.58257 -10.57676
 Alpha  occ. eigenvalues --  -10.57412 -10.56951  -1.19612  -1.17039  -1.09064
 Alpha  occ. eigenvalues --   -0.96708  -0.89380  -0.85670  -0.81687  -0.76076
 Alpha  occ. eigenvalues --   -0.70832  -0.67845  -0.65635  -0.59941  -0.59256
 Alpha  occ. eigenvalues --   -0.57275  -0.55696  -0.53872  -0.52522  -0.52136
 Alpha  occ. eigenvalues --   -0.52054  -0.50742  -0.46982  -0.46980  -0.45626
 Alpha  occ. eigenvalues --   -0.44740  -0.43274  -0.40524  -0.38263  -0.33227
 Alpha  occ. eigenvalues --   -0.32682  -0.28683
 Alpha virt. eigenvalues --   -0.06649   0.01097   0.04351   0.10312   0.11677
 Alpha virt. eigenvalues --    0.13459   0.14723   0.16724   0.17123   0.18068
 Alpha virt. eigenvalues --    0.19286   0.19453   0.20833   0.21498   0.25562

 Mulliken charges:
               1
     1  C   -0.007159
     2  C   -0.079744
     3  C    0.186623
     4  C   -0.067839
     5  C   -0.018014
     6  C   -0.029174
     7  H    0.056210
     8  H    0.034010
     9  H    0.043399
    10  H    0.047232
    11  C    0.114287
    12  C    0.225586
    13  N   -0.365450
    14  O   -0.250516
    15  O   -0.192053
    16  C    0.056512
    17  H    0.082664
    18  H    0.082663
    19  H    0.080763
 Sum of Mulliken charges =   0.00000

 Dipole moment (field-independent basis, Debye):
    X=             -5.4528    Y=              5.2239    Z=              0.0002  Tot=              7.5513
 Quadrupole moment (field-independent basis, Debye-Ang):
   XX=            -72.7084   YY=            -64.8962   ZZ=            -69.3939
   XY=              7.9678   XZ=              0.0006   YZ=             -0.0002

  Exact polarizability: 185.364 -10.225 154.488   0.000  -0.001  62.538
 Approx polarizability: 174.884 -14.541 154.260   0.000  -0.001  67.274

 Summary of Natural Population Analysis:

                                       Natural Population
                Natural  -----------------------------------------------
    Atom  No    Charge         Core      Valence    Rydberg      Total
 -----------------------------------------------------------------------
      C    1   -0.17179      1.99904     4.15780    0.01496     6.17179
      C    2   -0.27665      1.99894     4.26317    0.01454     6.27665
      C    3    0.22841      1.99890     3.75438    0.01831     5.77159
      C    4   -0.21113      1.99882     4.19536    0.01694     6.21113
      C    5   -0.15686      1.99897     4.14173    0.01616     6.15686
      C    6   -0.25869      1.99901     4.24449    0.01519     6.25869
      H    7    0.24676      0.00000     0.75079    0.00245     0.75324
      H    8    0.25665      0.00000     0.74110    0.00225     0.74335
      H    9    0.25151      0.00000     0.74519    0.00330     0.74849
      H   10    0.24635      0.00000     0.75124    0.00240     0.75365
      C   11    0.52947      1.99914     3.42714    0.04424     5.47053
      C   12    0.68839      1.99924     3.25982    0.05255     5.31161
      N   13   -0.51844      1.99905     5.50985    0.00954     7.51844
      O   14   -0.60971      1.99974     6.59772    0.01225     8.60971
      O   15   -0.52865      1.99974     6.51604    0.01287     8.52865
      C   16   -0.41055      1.99936     4.39760    0.01359     6.41055
      H   17    0.22644      0.00000     0.77136    0.00221     0.77356
      H   18    0.22644      0.00000     0.77135    0.00221     0.77356
      H   19    0.24205      0.00000     0.75406    0.00389     0.75795
 =======================================================================
   * Total *    0.00000     23.98996    59.75019    0.25985    84.00000

                      1                      2                      3
                      A                      A                      A
 Frequencies --    112.5401               122.3440               145.8898
 Red. masses --      8.4973                 2.8882                 5.6743
 Frc consts  --      0.0634                 0.0255                 0.0712
 IR Inten    --      0.1292                 2.9890                 1.0448

                      4                      5                      6
                      A                      A                      A
 Frequencies --    173.7735               239.9785               288.4625
 Red. masses --      1.0704                 3.4516                 5.3791
 Frc consts  --      0.0190                 0.1171                 0.2637
 IR Inten    --      0.0025                 1.8579                 0.0082

                      7                      8                      9
                      A                      A                      A
 Frequencies --    296.4739               335.0060               416.1181
 Red. masses --      5.2655                10.3026                 3.7159
 Frc consts  --      0.2727                 0.6812                 0.3791
 IR Inten    --      5.9521                13.5742                 1.5638

                     10                     11                     12
                      A                      A                      A
 Frequencies --    491.2941               494.5487               540.7089
 Red. masses --      8.1520                 5.1387                 5.3194
 Frc consts  --      1.1593                 0.7405                 0.9163
 IR Inten    --      3.2355                44.4120                15.2399

                     13                     14                     15
                      A                      A                      A
 Frequencies --    565.4487               572.5554               702.3357
 Red. masses --      8.7436                 4.0722                 6.1774
 Frc consts  --      1.6471                 0.7865                 1.7953
 IR Inten    --     12.4230                 3.7308                 4.0615

                     16                     17                     18
                      A                      A                      A
 Frequencies --    722.2155               754.6302               786.6536
 Red. masses --      6.0992                 2.8583                 1.5690
 Frc consts  --      1.8744                 0.9590                 0.5721
 IR Inten    --      7.8302                 5.4138                78.4986

                     19                     20                     21
                      A                      A                      A
 Frequencies --    849.5876               884.0042               912.7465
 Red. masses --      4.9246                 4.5437                 1.4699
 Frc consts  --      2.0943                 2.0920                 0.7215
 IR Inten    --      3.1413                35.2326                 4.9755

                     22                     23                     24
                      A                      A                      A
 Frequencies --    989.3489              1004.6887              1048.5756
 Red. masses --      3.9106                 1.3983                 1.3492
 Frc consts  --      2.2552                 0.8316                 0.8740
 IR Inten    --     13.7494                 1.5062                 0.2471

                     25                     26                     27
                      A                      A                      A
 Frequencies --   1049.6747              1080.6405              1119.9398
 Red. masses --      1.7998                 5.3644                 1.7070
 Frc consts  --      1.1684                 3.6909                 1.2614
 IR Inten    --     12.4613                14.1479                85.4214

                     28                     29                     30
                      A                      A                      A
 Frequencies --   1135.6583              1136.2037              1169.0445
 Red. masses --      1.7799                 1.3194                 1.1973
 Frc consts  --      1.3525                 1.0035                 0.9641
 IR Inten    --     69.2981                 0.6136                28.7598

                     31                     32                     33
                      A                      A                      A
 Frequencies --   1225.9069              1284.6337              1350.1607
 Red. masses --      2.6065                 2.2934                 2.6506
 Frc consts  --      2.3079                 2.2300                 2.8469
 IR Inten    --     39.8619                 3.5456               142.0819

                     34                     35                     36
                      A                      A                      A
 Frequencies --   1383.8404              1415.1731              1440.6482
 Red. masses --      4.8946                 1.6303                 2.0904
 Frc consts  --      5.5226                 1.9236                 2.5562
 IR Inten    --    122.5785                66.1522                77.6767

                     37                     38                     39
                      A                      A                      A
 Frequencies --   1457.1613              1480.3041              1526.9431
 Red. masses --      1.0369                 1.1146                 3.4093
 Frc consts  --      1.2971                 1.4391                 4.6834
 IR Inten    --     18.9904                68.1003               266.0968

                     40                     41                     42
                      A                      A                      A
 Frequencies --   1551.9903              1695.1460              1710.9341
 Red. masses --      4.1115                 7.6575                 8.0204
 Frc consts  --      5.8348                12.9644                13.8329
 IR Inten    --     88.3733                74.3178               581.0462

                     43                     44                     45
                      A                      A                      A
 Frequencies --   1895.1376              1910.3610              3062.5350
 Red. masses --     12.4858                13.1162                 1.0345
 Frc consts  --     26.4209                28.2025                 5.7164
 IR Inten    --    640.0036               557.3001                36.9390

                     46                     47                     48
                      A                      A                      A
 Frequencies --   3153.0679              3194.5366              3217.9158
 Red. masses --      1.1082                 1.1049                 1.0885
 Frc consts  --      6.4916                 6.6434                 6.6411
 IR Inten    --     12.3673                 0.0236                 0.3362

                     49                     50                     51
                      A                      A                      A
 Frequencies --   3226.1320              3233.4760              3240.1410
 Red. masses --      1.0928                 1.0971                 1.0995
 Frc consts  --      6.7013                 6.7584                 6.8011
 IR Inten    --      2.1487                 6.3016                 1.4859

 - Thermochemistry -
 -------------------
 Temperature   298.150 Kelvin.  Pressure   1.00000 Atm.
 Atom     1 has atomic number  6 and mass  12.00000

 Molecular mass:   161.04768 amu.
 Principal axes and moments of inertia in atomic units:
                           1         2         3
     Eigenvalues --  1116.990141993.199583098.63016
           X            0.99892   0.04650   0.00000
           Y           -0.04650   0.99892   0.00000
           Z            0.00000   0.00000   1.00000
 This molecule is an asymmetric top.
 Rotational symmetry number  1.
 Warning -- assumption of classical behavior for rotation
           may cause significant error
 Rotational temperatures (Kelvin)      0.07754     0.04345     0.02795
 Rotational constants (GHZ):           1.61572     0.90545     0.58243
 Zero-point vibrational energy     381592.2 (Joules/Mol)
                                   91.20273 (Kcal/Mol)
 Warning -- explicit consideration of  14 degrees of freedom as
           vibrations may cause significant error
 Vibrational temperatures:    161.92   176.03   209.90   250.02   345.28
          (Kelvin)            415.03   426.56   482.00   598.70   706.86
                              711.54   777.96   813.55   823.78  1010.50
                             1039.11  1085.74  1131.82  1222.37  1271.88
                             1313.24  1423.45  1445.52  1508.66  1510.25
                             1554.80  1611.34  1633.96  1634.74  1681.99
                             1763.80  1848.30  1942.58  1991.04  2036.12
                             2072.77  2096.53  2129.82  2196.93  2232.97
                             2438.93  2461.65  2726.68  2748.58  4406.30
                             4536.56  4596.22  4629.86  4641.68  4652.24
                             4661.83

 Zero-point correction=                           0.145341 (Hartree/Particle)
 Thermal correction to Energy=                    0.154768
 Thermal correction to Enthalpy=                  0.155712
 Thermal correction to Gibbs Free Energy=         0.110586
 Sum of electronic and zero-point Energies=           -551.613767
 Sum of electronic and thermal Energies=              -551.604339
 Sum of electronic and thermal Enthalpies=            -551.603395
 Sum of electronic and thermal Free Energies=         -551.648521

                     E (Thermal)             CV                S
                      KCal/Mol        Cal/Mol-Kelvin    Cal/Mol-Kelvin
 Total                   97.118             36.169             94.975
 Electronic               0.000              0.000              0.000
 Translational            0.889              2.981             41.139
 Rotational               0.889              2.981             30.313
 Vibrational             95.341             30.207             23.524
 Vibration     1          0.607              1.939              3.225
 Vibration     2          0.610              1.930              3.063
 Vibration     3          0.617              1.907              2.725
 Vibration     4          0.627              1.875              2.394
 Vibration     5          0.657              1.779              1.803
 Vibration     6          0.685              1.695              1.483
 Vibration     7          0.690              1.680              1.437
 Vibration     8          0.716              1.606              1.236
 Vibration     9          0.779              1.435              0.905
 Vibration    10          0.847              1.269              0.680
 Vibration    11          0.850              1.262              0.672
 Vibration    12          0.896              1.160              0.564
 Vibration    13          0.921              1.106              0.513
 Vibration    14          0.929              1.091              0.499

 Optimization completed.
    -- Stationary point found.
 Normal termination of Gaussian 09 at Sun Nov  1 22:12:50 2020.
