 Gaussian 09, Revision D.01,
 Gaussian 09:  ES64L-G09RevD.01 24-Apr-2013

 --------------------------------------------------------
 # freq scrf=(cpcm,solvent=ethanol) pop=nbo def2svp m062x
 --------------------------------------------------------

 -----------------------
 MeNO2 + isatin TS4 freq
 -----------------------
 Symbolic Z-matrix:
 Charge =  0 Multiplicity = 1

                         Standard orientation:
 ---------------------------------------------------------------------
 Center     Atomic      Atomic             Coordinates (Angstroms)
 Number     Number       Type             X           Y           Z
 ---------------------------------------------------------------------
      1          7           0        1.260207    0.867644    1.549737
      2          8           0        1.219176    2.085771    1.470969
      3          8           0        2.374955    0.252746    1.386417
      4          6           0        0.144263    0.111731    1.706237
      5          1           0       -0.740160    0.664980    2.014902
      6          1           0        0.322863   -0.915867    2.008012
      7          1           0        2.786148    0.169553    0.050947
      8          6           0       -4.337454   -1.059240    0.259811
      9          6           0       -3.766614    0.174972   -0.075680
     10          6           0       -2.393770    0.207952   -0.284992
     11          6           0       -1.611088   -0.954301   -0.145666
     12          6           0       -2.186486   -2.174372    0.179297
     13          6           0       -3.568850   -2.220861    0.382461
     14          1           0       -5.414658   -1.111887    0.425276
     15          1           0       -4.379927    1.070675   -0.173402
     16          1           0       -1.566500   -3.067463    0.273514
     17          1           0       -4.051924   -3.164202    0.637344
     18          6           0       -0.217420   -0.561484   -0.423902
     19          6           0       -0.292413    0.921818   -0.807408
     20          7           0       -1.600486    1.302718   -0.646202
     21          8           0        0.639849    1.593649   -1.182741
     22          8           0        0.738563   -1.288095   -0.745658
     23          6           0       -2.084487    2.648554   -0.849707
     24          1           0       -2.836126    2.675610   -1.651223
     25          1           0       -2.526390    3.045106    0.075281
     26          1           0       -1.226895    3.267916   -1.136222
     27          8           0        2.960242   -0.247469   -0.915484
     28          1           0        1.986075   -0.647830   -1.036863
     29          6           0        3.881211   -1.347603   -0.727525
     30          1           0        3.424210   -2.061931   -0.026897
     31          1           0        3.993766   -1.831437   -1.705371
     32          6           0        5.194375   -0.814428   -0.207031
     33          1           0        5.905995   -1.640259   -0.080732
     34          1           0        5.621930   -0.087898   -0.910668
     35          1           0        5.053661   -0.326840    0.767952
 ---------------------------------------------------------------------

 SCF Done:  E(RM062X) =  -951.313313295     A.U. after   15 cycles

 The electronic state is 1-A.
 Alpha  occ. eigenvalues --  -19.69442 -19.64956 -19.64594 -19.63951 -19.63625
 Alpha  occ. eigenvalues --  -14.97958 -14.81703 -10.67629 -10.67539 -10.62183
 Alpha  occ. eigenvalues --  -10.61844 -10.59696 -10.59076 -10.57990 -10.57652
 Alpha  occ. eigenvalues --  -10.57502 -10.57380 -10.56656 -10.55475  -1.32315
 Alpha  occ. eigenvalues --   -1.20714  -1.18709  -1.15810  -1.12846  -1.08885
 Alpha  occ. eigenvalues --   -0.96348  -0.91882  -0.89201  -0.86105  -0.85293
 Alpha  occ. eigenvalues --   -0.81449  -0.76535  -0.73079  -0.70527  -0.69144
 Alpha  occ. eigenvalues --   -0.68071  -0.66951  -0.64720  -0.63703  -0.61154
 Alpha  occ. eigenvalues --   -0.59834  -0.59342  -0.58536  -0.57961  -0.56089
 Alpha  occ. eigenvalues --   -0.55601  -0.54521  -0.53246  -0.52138  -0.51772
 Alpha  occ. eigenvalues --   -0.51657  -0.50989  -0.49468  -0.47945  -0.46801
 Alpha  occ. eigenvalues --   -0.46538  -0.46054  -0.45210  -0.44528  -0.44304
 Alpha  occ. eigenvalues --   -0.42821  -0.41740  -0.39939  -0.39103  -0.38203
 Alpha  occ. eigenvalues --   -0.36966  -0.35991  -0.33653  -0.33364  -0.28656
 Alpha  occ. eigenvalues --   -0.27887
 Alpha virt. eigenvalues --   -0.06751   0.01170   0.02423   0.04781   0.09689
 Alpha virt. eigenvalues --    0.10661   0.11249   0.12226   0.12963   0.14230
 Alpha virt. eigenvalues --    0.15202   0.15338   0.16175   0.16510   0.17394

 Mulliken charges:
               1
     1  N    0.230258
     2  O   -0.328827
     3  O   -0.451445
     4  C    0.005535
     5  H    0.087695
     6  H    0.078803
     7  H    0.260664
     8  C   -0.013670
     9  C   -0.081316
    10  C    0.164040
    11  C    0.020404
    12  C   -0.033493
    13  C   -0.030874
    14  H    0.050776
    15  H    0.029483
    16  H    0.037992
    17  H    0.043393
    18  C    0.010600
    19  C    0.233803
    20  N   -0.336911
    21  O   -0.256464
    22  O   -0.345623
    23  C    0.059824
    24  H    0.081086
    25  H    0.080141
    26  H    0.080417
    27  O   -0.276543
    28  H    0.280180
    29  C    0.072670
    30  H    0.071453
    31  H    0.082881
    32  C   -0.115426
    33  H    0.073409
    34  H    0.068728
    35  H    0.066356
 Sum of Mulliken charges =   0.00000

 Dipole moment (field-independent basis, Debye):
    X=             -4.3322    Y=             -3.9802    Z=             -0.8197  Tot=              5.9398
 Quadrupole moment (field-independent basis, Debye-Ang):
   XX=            -82.1450   YY=           -108.6105   ZZ=           -115.6409
   XY=            -16.5242   XZ=             -6.2150   YZ=             -4.3748

  Exact polarizability: 302.278  28.981 234.754   2.431   2.167 158.829
 Approx polarizability: 263.700  22.591 236.773  -4.219   4.330 159.942

 Summary of Natural Population Analysis:

                                       Natural Population
                Natural  -----------------------------------------------
    Atom  No    Charge         Core      Valence    Rydberg      Total
 -----------------------------------------------------------------------
      N    1    0.46945      1.99920     4.48453    0.04683     6.53055
      O    2   -0.45754      1.99976     6.44116    0.01663     8.45754
      O    3   -0.62862      1.99977     6.61416    0.01469     8.62862
      C    4   -0.34539      1.99925     4.31492    0.03122     6.34539
      H    5    0.23640      0.00000     0.76075    0.00285     0.76360
      H    6    0.24594      0.00000     0.75128    0.00278     0.75406
      H    7    0.54267      0.00000     0.44789    0.00944     0.45733
      C    8   -0.19013      1.99903     4.17605    0.01505     6.19013
      C    9   -0.27232      1.99894     4.25871    0.01467     6.27232
      C   10    0.21961      1.99888     3.76291    0.01859     5.78039
      C   11   -0.16900      1.99879     4.15178    0.01843     6.16900
      C   12   -0.17610      1.99894     4.16077    0.01639     6.17610
      C   13   -0.25396      1.99901     4.23971    0.01523     6.25396
      H   14    0.24478      0.00000     0.75278    0.00245     0.75522
      H   15    0.25494      0.00000     0.74281    0.00226     0.74506
      H   16    0.25051      0.00000     0.74642    0.00308     0.74949
      H   17    0.24426      0.00000     0.75334    0.00240     0.75574
      C   18    0.46942      1.99894     3.48458    0.04707     5.53058
      C   19    0.69119      1.99910     3.25376    0.05595     5.30881
      N   20   -0.51407      1.99902     5.50473    0.01032     7.51407
      O   21   -0.62866      1.99973     6.61673    0.01220     8.62866
      O   22   -0.68583      1.99967     6.67384    0.01233     8.68583
      C   23   -0.40785      1.99937     4.39517    0.01331     6.40785
      H   24    0.22524      0.00000     0.77252    0.00224     0.77476
      H   25    0.22595      0.00000     0.77183    0.00222     0.77405
      H   26    0.24175      0.00000     0.75448    0.00377     0.75825
      O   27   -0.77935      1.99976     6.77153    0.00806     8.77935
      H   28    0.55207      0.00000     0.43955    0.00839     0.44793
      C   29   -0.06028      1.99918     4.04789    0.01321     6.06028
      H   30    0.20884      0.00000     0.78733    0.00383     0.79116
      H   31    0.21912      0.00000     0.77780    0.00307     0.78088
      C   32   -0.66712      1.99931     4.66028    0.00752     6.66712
      H   33    0.23987      0.00000     0.75827    0.00187     0.76013
      H   34    0.22731      0.00000     0.76973    0.00296     0.77269
      H   35    0.22692      0.00000     0.77059    0.00249     0.77308
 =======================================================================
   * Total *    0.00000     37.98565   103.57055    0.44381   142.00000

 ******    1 imaginary frequencies (negative Signs) ******

                      1                      2                      3
                      A                      A                      A
 Frequencies --   -397.0439                19.9271                42.5211
 Red. masses --      4.1852                 5.1747                 4.0449
 Frc consts  --      0.3887                 0.0012                 0.0043
 IR Inten    --    582.3057                 3.0541                 2.6550

                      4                      5                      6
                      A                      A                      A
 Frequencies --     63.3699                77.3336                83.1108
 Red. masses --      3.3590                 4.2886                 4.3228
 Frc consts  --      0.0079                 0.0151                 0.0176
 IR Inten    --      6.2009                 4.9426                 8.3319

                      7                      8                      9
                      A                      A                      A
 Frequencies --    110.0922               123.6398               127.3433
 Red. masses --      2.9889                 1.8999                 1.5148
 Frc consts  --      0.0213                 0.0171                 0.0145
 IR Inten    --      0.9613                 0.9193                 1.4179

                     10                     11                     12
                      A                      A                      A
 Frequencies --    134.0329               147.5571               153.6652
 Red. masses --      3.2873                 4.5270                 6.0559
 Frc consts  --      0.0348                 0.0581                 0.0843
 IR Inten    --      2.1061                14.8768                18.5474

                     13                     14                     15
                      A                      A                      A
 Frequencies --    186.1099               215.1148               233.5000
 Red. masses --      4.9585                12.0685                 6.2057
 Frc consts  --      0.1012                 0.3290                 0.1994
 IR Inten    --     16.8761                 3.5635                15.0489

                     16                     17                     18
                      A                      A                      A
 Frequencies --    246.7397               266.1780               315.3580
 Red. masses --      3.1504                 1.1770                 4.9694
 Frc consts  --      0.1130                 0.0491                 0.2912
 IR Inten    --     12.2514                 4.8518                 8.7045

                     19                     20                     21
                      A                      A                      A
 Frequencies --    325.5241               338.7965               395.0761
 Red. masses --      5.8146                 6.9190                 3.2460
 Frc consts  --      0.3630                 0.4679                 0.2985
 IR Inten    --      5.0869                 8.2130                74.4412

                     22                     23                     24
                      A                      A                      A
 Frequencies --    422.2154               469.7132               496.8135
 Red. masses --      3.8063                 3.8618                 7.6999
 Frc consts  --      0.3998                 0.5020                 1.1198
 IR Inten    --     60.8276               174.0207                14.1512

                     25                     26                     27
                      A                      A                      A
 Frequencies --    512.0404               545.8280               560.0398
 Red. masses --      4.1270                 4.3958                 2.9750
 Frc consts  --      0.6375                 0.7716                 0.5498
 IR Inten    --    242.9377                 7.8210                30.1012

                     28                     29                     30
                      A                      A                      A
 Frequencies --    581.3618               588.8733               682.8839
 Red. masses --      3.6002                 5.5223                 2.7658
 Frc consts  --      0.7169                 1.1283                 0.7599
 IR Inten    --    159.3309                24.2970                83.2984

                     31                     32                     33
                      A                      A                      A
 Frequencies --    705.9130               717.4811               731.0612
 Red. masses --      5.9370                 4.1099                 3.7115
 Frc consts  --      1.7431                 1.2465                 1.1687
 IR Inten    --     12.0502                 5.0053               131.6094

                     34                     35                     36
                      A                      A                      A
 Frequencies --    737.5339               768.8628               782.3018
 Red. masses --      1.7938                 1.6882                 1.9670
 Frc consts  --      0.5749                 0.5880                 0.7092
 IR Inten    --     41.5550                29.9857                57.5479

                     37                     38                     39
                      A                      A                      A
 Frequencies --    804.6164               815.2332               823.2084
 Red. masses --      2.2740                 1.3974                 1.8498
 Frc consts  --      0.8674                 0.5472                 0.7386
 IR Inten    --     12.1182                25.4518                45.9329

                     40                     41                     42
                      A                      A                      A
 Frequencies --    865.9287               887.6712               899.2323
 Red. masses --      1.6347                 4.2671                 1.5008
 Frc consts  --      0.7222                 1.9810                 0.7150
 IR Inten    --    188.1512                17.8408                 3.7676

                     43                     44                     45
                      A                      A                      A
 Frequencies --    911.9267               987.8565              1009.4220
 Red. masses --      2.0906                 1.4029                 3.7665
 Frc consts  --      1.0243                 0.8066                 2.2612
 IR Inten    --      5.4209                 0.5477                 7.3155

                     46                     47                     48
                      A                      A                      A
 Frequencies --   1035.7135              1043.4380              1057.0521
 Red. masses --      1.3491                 1.7200                 3.0607
 Frc consts  --      0.8527                 1.1033                 2.0149
 IR Inten    --      0.4674                19.6694               405.0315

                     49                     50                     51
                      A                      A                      A
 Frequencies --   1083.4516              1092.7446              1105.4509
 Red. masses --      3.9539                 3.2099                 1.9984
 Frc consts  --      2.7346                 2.2583                 1.4388
 IR Inten    --     36.0346                50.0120                48.6842

                     52                     53                     54
                      A                      A                      A
 Frequencies --   1122.6565              1127.1501              1137.5063
 Red. masses --      1.6742                 1.7850                 1.3804
 Frc consts  --      1.2432                 1.3361                 1.0524
 IR Inten    --     79.9928                12.1330                14.9119

                     55                     56                     57
                      A                      A                      A
 Frequencies --   1139.5063              1154.6683              1162.8914
 Red. masses --      1.6353                 1.4111                 1.3208
 Frc consts  --      1.2511                 1.1085                 1.0524
 IR Inten    --     81.1020                80.7546                96.1256

                     58                     59                     60
                      A                      A                      A
 Frequencies --   1218.7175              1279.8052              1282.6616
 Red. masses --      2.5558                 1.2912                 2.2340
 Frc consts  --      2.2366                 1.2461                 2.1655
 IR Inten    --     94.5319               553.5939                59.3969

                     61                     62                     63
                      A                      A                      A
 Frequencies --   1324.3730              1344.4525              1363.3850
 Red. masses --      1.6369                 2.1800                 1.4690
 Frc consts  --      1.6916                 2.3217                 1.6088
 IR Inten    --    748.4969                95.1529               167.7546

                     64                     65                     66
                      A                      A                      A
 Frequencies --   1368.7098              1388.2439              1404.3557
 Red. masses --      1.3114                 5.1996                 1.3154
 Frc consts  --      1.4474                 5.9041                 1.5285
 IR Inten    --    117.9259                76.0206               187.5204

                     67                     68                     69
                      A                      A                      A
 Frequencies --   1416.9254              1432.0808              1438.7771
 Red. masses --      1.8066                 1.3864                 1.7979
 Frc consts  --      2.1370                 1.6753                 2.1929
 IR Inten    --     86.7579                58.4023                85.5653

                     70                     71                     72
                      A                      A                      A
 Frequencies --   1453.6039              1459.3863              1471.0396
 Red. masses --      1.0465                 1.0374                 1.0601
 Frc consts  --      1.3028                 1.3018                 1.3516
 IR Inten    --      7.6776                19.0242                 4.0109

                     73                     74                     75
                      A                      A                      A
 Frequencies --   1478.1397              1499.4636              1517.6832
 Red. masses --      1.1198                 1.1047                 1.3199
 Frc consts  --      1.4416                 1.4634                 1.7912
 IR Inten    --     58.6805                 8.0592                55.1229

                     76                     77                     78
                      A                      A                      A
 Frequencies --   1527.2919              1548.1898              1595.6268
 Red. masses --      3.0911                 4.0515                 8.2946
 Frc consts  --      4.2482                 5.7216                12.4425
 IR Inten    --    178.0179                55.7513              1038.7650

                     79                     80                     81
                      A                      A                      A
 Frequencies --   1672.8628              1690.2822              1714.2385
 Red. masses --      4.0523                 7.5871                 8.0479
 Frc consts  --      6.6814                12.7716                13.9340
 IR Inten    --   1666.3124                23.3212               290.8384

                     82                     83                     84
                      A                      A                      A
 Frequencies --   1772.3100              1869.1925              2029.9812
 Red. masses --      1.1962                11.4337                 1.3610
 Frc consts  --      2.2139                23.5367                 3.3044
 IR Inten    --    276.1683               497.3927              1055.8041

                     85                     86                     87
                      A                      A                      A
 Frequencies --   2414.6679              3062.8457              3071.9905
 Red. masses --      1.0601                 1.0349                 1.0368
 Frc consts  --      3.6416                 5.7201                 5.7648
 IR Inten    --   4774.4501                42.2802                 7.3043

                     88                     89                     90
                      A                      A                      A
 Frequencies --   3104.6522              3151.5148              3164.1099
 Red. masses --      1.0634                 1.1083                 1.1064
 Frc consts  --      6.0389                 6.4858                 6.5264
 IR Inten    --     28.2431                13.7403                 1.4701

                     91                     92                     93
                      A                      A                      A
 Frequencies --   3177.1290              3184.6650              3195.5171
 Red. masses --      1.1049                 1.1087                 1.0502
 Frc consts  --      6.5713                 6.6251                 6.3183
 IR Inten    --      9.1363                23.5227                 8.9084

                     94                     95                     96
                      A                      A                      A
 Frequencies --   3198.0159              3210.8328              3215.9861
 Red. masses --      1.1044                 1.0892                 1.0922
 Frc consts  --      6.6551                 6.6159                 6.6557
 IR Inten    --      0.0895                 0.9791                 2.0290

                     97                     98                     99
                      A                      A                      A
 Frequencies --   3226.1352              3233.4670              3342.1286
 Red. masses --      1.0961                 1.1000                 1.1282
 Frc consts  --      6.7217                 6.7759                 7.4249
 IR Inten    --      2.8492                 6.5687                 5.1595

 - Thermochemistry -
 -------------------
 Temperature   298.150 Kelvin.  Pressure   1.00000 Atm.
 Atom     1 has atomic number  7 and mass  14.00307

 Molecular mass:   268.10592 amu.
 Principal axes and moments of inertia in atomic units:
                           1         2         3
     Eigenvalues --  2627.170517292.230218260.49666
           X            0.99975  -0.02165  -0.00581
           Y            0.02147   0.99935  -0.02890
           Z            0.00644   0.02876   0.99957
 This molecule is an asymmetric top.
 Rotational symmetry number  1.
 Warning -- assumption of classical behavior for rotation
           may cause significant error
 Rotational temperatures (Kelvin)      0.03297     0.01188     0.01049
 Rotational constants (GHZ):           0.68695     0.24749     0.21848
    1 imaginary frequencies ignored.
 Zero-point vibrational energy     727871.9 (Joules/Mol)
                                  173.96555 (Kcal/Mol)
 Warning -- explicit consideration of  28 degrees of freedom as
           vibrations may cause significant error
 Vibrational temperatures:     28.67    61.18    91.18   111.27   119.58
          (Kelvin)            158.40   177.89   183.22   192.84   212.30
                              221.09   267.77   309.50   335.95   355.00
                              382.97   453.73   468.36   487.45   568.43
                              607.47   675.81   714.80   736.71   785.32
                              805.77   836.45   847.26   982.52  1015.65
                             1032.29  1051.83  1061.15  1106.22  1125.56
                             1157.66  1172.94  1184.41  1245.88  1277.16
                             1293.79  1312.06  1421.30  1452.33  1490.16
                             1501.27  1520.86  1558.84  1572.21  1590.50
                             1615.25  1621.72  1636.62  1639.49  1661.31
                             1673.14  1753.46  1841.35  1845.46  1905.48
                             1934.36  1961.60  1969.27  1997.37  2020.55
                             2038.64  2060.44  2070.08  2091.41  2099.73
                             2116.50  2126.71  2157.39  2183.60  2197.43
                             2227.50  2295.75  2406.87  2431.94  2466.40
                             2549.96  2689.35  2920.69  3474.16  4406.75
                             4419.90  4466.90  4534.32  4552.44  4571.17
                             4582.02  4597.63  4601.23  4619.67  4627.08
                             4641.68  4652.23  4808.57

 Zero-point correction=                           0.277232 (Hartree/Particle)
 Thermal correction to Energy=                    0.295657
 Thermal correction to Enthalpy=                  0.296601
 Thermal correction to Gibbs Free Energy=         0.229534
 Sum of electronic and zero-point Energies=           -951.036082
 Sum of electronic and thermal Energies=              -951.017656
 Sum of electronic and thermal Enthalpies=            -951.016712
 Sum of electronic and thermal Free Energies=         -951.083779

                     E (Thermal)             CV                S
                      KCal/Mol        Cal/Mol-Kelvin    Cal/Mol-Kelvin
 Total                  185.528             68.039            141.154
 Electronic               0.000              0.000              0.000
 Translational            0.889              2.981             42.658
 Rotational               0.889              2.981             33.425
 Vibrational            183.750             62.078             65.071
 Vibration     1          0.593              1.986              6.641
 Vibration     2          0.595              1.980              5.138
 Vibration     3          0.597              1.972              4.349
 Vibration     4          0.599              1.964              3.957
 Vibration     5          0.600              1.961              3.816
 Vibration     6          0.606              1.941              3.267
 Vibration     7          0.610              1.929              3.043
 Vibration     8          0.611              1.926              2.986
 Vibration     9          0.613              1.919              2.887
 Vibration    10          0.617              1.905              2.703
 Vibration    11          0.619              1.899              2.626
 Vibration    12          0.632              1.859              2.266
 Vibration    13          0.645              1.818              2.000
 Vibration    14          0.654              1.790              1.852
 Vibration    15          0.661              1.768              1.754
 Vibration    16          0.672              1.735              1.621
 Vibration    17          0.703              1.644              1.334
 Vibration    18          0.710              1.624              1.282
 Vibration    19          0.719              1.598              1.218
 Vibration    20          0.762              1.481              0.981
 Vibration    21          0.785              1.422              0.884
 Vibration    22          0.827              1.317              0.738
 Vibration    23          0.852              1.257              0.666
 Vibration    24          0.867              1.223              0.629
 Vibration    25          0.901              1.149              0.553
 Vibration    26          0.916              1.118              0.524
 Vibration    27          0.938              1.072              0.483
 Vibration    28          0.946              1.056              0.469

 Normal termination of Gaussian 09 at Fri Nov  6 15:23:15 2020.
