 Gaussian 09, Revision D.01,
 Gaussian 09:  ES64L-G09RevD.01 24-Apr-2013

 --------------------------------------------------------
 # freq scrf=(cpcm,solvent=ethanol) pop=nbo def2svp m062x
 --------------------------------------------------------

 --------------------
 MeNO2+2EtOH TS3 freq
 --------------------
 Symbolic Z-matrix:
 Charge =  0 Multiplicity = 1

                         Standard orientation:
 ---------------------------------------------------------------------
 Center     Atomic      Atomic             Coordinates (Angstroms)
 Number     Number       Type             X           Y           Z
 ---------------------------------------------------------------------
      1          7           0        2.329702   -0.124015    0.128362
      2          8           0        3.363927    0.319197   -0.343450
      3          8           0        1.967146   -1.303593   -0.177307
      4          6           0        1.511569    0.638793    0.927742
      5          1           0        0.928305    0.036616    1.626596
      6          1           0        2.010449    1.531669    1.302992
      7          1           0        0.262693    1.074362   -0.100802
      8          8           0       -0.627011    1.024818   -0.677287
      9          1           0       -0.701160   -0.121813   -0.712369
     10          8           0       -0.502172   -1.370314   -0.622957
     11          1           0        0.514629   -1.420198   -0.448675
     12          6           0       -1.706238    1.667778    0.023029
     13          1           0       -1.776204    1.255355    1.042459
     14          1           0       -2.626235    1.411292   -0.518262
     15          6           0       -1.483437    3.162478    0.047757
     16          1           0       -1.410507    3.555130   -0.975073
     17          1           0       -2.321359    3.657156    0.556127
     18          1           0       -0.558629    3.410094    0.588005
     19          6           0       -1.199485   -2.024284    0.440862
     20          1           0       -0.768535   -3.028680    0.557927
     21          1           0       -1.038438   -1.480484    1.387185
     22          6           0       -2.671787   -2.108130    0.108157
     23          1           0       -2.820388   -2.655723   -0.832105
     24          1           0       -3.209804   -2.631453    0.909401
     25          1           0       -3.111596   -1.105895    0.000783
 ---------------------------------------------------------------------

 SCF Done:  E(RM062X) =  -554.395549313     A.U. after   14 cycles

 The electronic state is 1-A.
 Alpha  occ. eigenvalues --  -19.68352 -19.66285 -19.63183 -19.63092 -14.97496
 Alpha  occ. eigenvalues --  -10.62198 -10.61433 -10.55629 -10.55426 -10.55217
 Alpha  occ. eigenvalues --   -1.31630  -1.19193  -1.15336  -1.11988  -0.89575
 Alpha  occ. eigenvalues --   -0.86145  -0.84857  -0.72522  -0.71045  -0.68549
 Alpha  occ. eigenvalues --   -0.64160  -0.62402  -0.61937  -0.58881  -0.58054
 Alpha  occ. eigenvalues --   -0.57090  -0.55525  -0.53710  -0.51315  -0.48116
 Alpha  occ. eigenvalues --   -0.47391  -0.46857  -0.45655  -0.44918  -0.43005
 Alpha  occ. eigenvalues --   -0.42147  -0.41003  -0.37965  -0.37274  -0.36296
 Alpha  occ. eigenvalues --   -0.34844  -0.28517
 Alpha virt. eigenvalues --    0.00506   0.08059   0.11018   0.11481   0.13452
 Alpha virt. eigenvalues --    0.14328   0.15563   0.16470   0.17265   0.18021
 Alpha virt. eigenvalues --    0.18530   0.19592   0.20243   0.21487   0.23300

 Mulliken charges:
               1
     1  N    0.273649
     2  O   -0.366265
     3  O   -0.451103
     4  C   -0.282543
     5  H    0.085205
     6  H    0.071823
     7  H    0.255942
     8  O   -0.331050
     9  H    0.291482
    10  O   -0.409198
    11  H    0.261262
    12  C    0.059132
    13  H    0.069815
    14  H    0.087167
    15  C   -0.094526
    16  H    0.065186
    17  H    0.069336
    18  H    0.062823
    19  C    0.074369
    20  H    0.067855
    21  H    0.061445
    22  C   -0.104985
    23  H    0.062773
    24  H    0.066664
    25  H    0.053742
 Sum of Mulliken charges =   0.00000

 Dipole moment (field-independent basis, Debye):
    X=             -9.2719    Y=              1.6242    Z=              3.1732  Tot=              9.9336
 Quadrupole moment (field-independent basis, Debye-Ang):
   XX=            -76.9838   YY=            -56.9430   ZZ=            -63.1827
   XY=              1.1509   XZ=              2.2991   YZ=             -1.0630

  Exact polarizability: 127.362  -2.413 113.297  -7.184   5.246  86.728
 Approx polarizability: 114.735  -1.254 101.842  -8.715   4.589  83.215

 Summary of Natural Population Analysis:

                                       Natural Population
                Natural  -----------------------------------------------
    Atom  No    Charge         Core      Valence    Rydberg      Total
 -----------------------------------------------------------------------
      N    1    0.49766      1.99928     4.45593    0.04713     6.50234
      O    2   -0.47795      1.99975     6.46173    0.01646     8.47795
      O    3   -0.60743      1.99976     6.59266    0.01501     8.60743
      C    4   -0.58048      1.99928     4.55086    0.03034     6.58048
      H    5    0.22197      0.00000     0.77562    0.00241     0.77803
      H    6    0.22763      0.00000     0.76985    0.00252     0.77237
      H    7    0.50472      0.00000     0.48902    0.00626     0.49528
      O    8   -0.80958      1.99976     6.80195    0.00787     8.80958
      H    9    0.55938      0.00000     0.43476    0.00586     0.44062
      O   10   -0.82684      1.99977     6.81893    0.00814     8.82684
      H   11    0.54122      0.00000     0.45188    0.00690     0.45878
      C   12   -0.06069      1.99917     4.04851    0.01301     6.06069
      H   13    0.20297      0.00000     0.79361    0.00342     0.79703
      H   14    0.21762      0.00000     0.77921    0.00318     0.78238
      C   15   -0.66145      1.99932     4.65448    0.00765     6.66145
      H   16    0.22622      0.00000     0.77072    0.00306     0.77378
      H   17    0.23704      0.00000     0.76105    0.00191     0.76296
      H   18    0.22391      0.00000     0.77398    0.00210     0.77609
      C   19   -0.05518      1.99919     4.04260    0.01338     6.05518
      H   20    0.21028      0.00000     0.78645    0.00327     0.78972
      H   21    0.19247      0.00000     0.80404    0.00349     0.80753
      C   22   -0.65927      1.99931     4.65239    0.00757     6.65927
      H   23    0.22483      0.00000     0.77204    0.00313     0.77517
      H   24    0.23526      0.00000     0.76283    0.00191     0.76474
      H   25    0.21568      0.00000     0.78188    0.00243     0.78432
 =======================================================================
   * Total *    0.00000     19.99458    63.78699    0.21843    84.00000

 ******    1 imaginary frequencies (negative Signs) ******

                      1                      2                      3
                      A                      A                      A
 Frequencies --   -671.3617                19.4414                55.6956
 Red. masses --      1.4636                 2.9436                 3.9179
 Frc consts  --      0.3887                 0.0007                 0.0072
 IR Inten    --    927.8085                 0.6071                 3.1632

                      4                      5                      6
                      A                      A                      A
 Frequencies --     64.8839                72.2275                84.2445
 Red. masses --      3.1574                 4.4545                 3.0710
 Frc consts  --      0.0078                 0.0137                 0.0128
 IR Inten    --      1.0717                 3.9948                 3.5917

                      7                      8                      9
                      A                      A                      A
 Frequencies --     90.1116               132.8522               140.3774
 Red. masses --      3.2655                 1.9314                 5.5093
 Frc consts  --      0.0156                 0.0201                 0.0640
 IR Inten    --      1.8747                 8.8598                 1.3746

                     10                     11                     12
                      A                      A                      A
 Frequencies --    156.6777               261.0100               273.8438
 Red. masses --      2.9882                 1.4918                 1.1925
 Frc consts  --      0.0432                 0.0599                 0.0527
 IR Inten    --      0.0970                59.9566                 8.2510

                     13                     14                     15
                      A                      A                      A
 Frequencies --    282.7878               374.1555               400.2103
 Red. masses --      2.5739                 2.9195                 3.0133
 Frc consts  --      0.1213                 0.2408                 0.2844
 IR Inten    --    115.9799                 8.6803                96.5184

                     16                     17                     18
                      A                      A                      A
 Frequencies --    505.9021               541.5847               567.5925
 Red. masses --      3.2211                 1.4685                 2.7379
 Frc consts  --      0.4857                 0.2538                 0.5197
 IR Inten    --    157.8520               149.5884               208.3790

                     19                     20                     21
                      A                      A                      A
 Frequencies --    656.3047               749.1929               765.6693
 Red. masses --      1.6221                 4.5372                 1.8552
 Frc consts  --      0.4117                 1.5005                 0.6408
 IR Inten    --    105.1864                60.6914               821.2734

                     22                     23                     24
                      A                      A                      A
 Frequencies --    808.6137               819.8470               850.4233
 Red. masses --      1.0838                 1.1040                 3.8899
 Frc consts  --      0.4175                 0.4372                 1.6575
 IR Inten    --      3.0046                 7.4446               773.3987

                     25                     26                     27
                      A                      A                      A
 Frequencies --    920.0613               937.8810              1056.1670
 Red. masses --      1.9794                 1.8409                 1.9832
 Frc consts  --      0.9872                 0.9541                 1.3034
 IR Inten    --     17.6113                57.1468               145.1279

                     28                     29                     30
                      A                      A                      A
 Frequencies --   1069.5815              1090.8708              1103.2678
 Red. masses --      2.2674                 1.6379                 2.7633
 Frc consts  --      1.5283                 1.1484                 1.9817
 IR Inten    --    149.1755               248.9095                32.8065

                     31                     32                     33
                      A                      A                      A
 Frequencies --   1119.3771              1132.6020              1143.5786
 Red. masses --      2.0024                 1.7264                 1.5239
 Frc consts  --      1.4783                 1.3048                 1.1742
 IR Inten    --    164.9957               103.9540               142.1806

                     34                     35                     36
                      A                      A                      A
 Frequencies --   1160.1641              1172.1498              1194.4082
 Red. masses --      1.5510                 1.6302                 1.5364
 Frc consts  --      1.2300                 1.3196                 1.2914
 IR Inten    --      6.0707                34.5449               452.4847

                     37                     38                     39
                      A                      A                      A
 Frequencies --   1307.8498              1312.8647              1339.7255
 Red. masses --      1.1501                 1.0812                 1.5555
 Frc consts  --      1.1591                 1.0980                 1.6450
 IR Inten    --     32.5263                 6.8818               639.4802

                     40                     41                     42
                      A                      A                      A
 Frequencies --   1379.6033              1388.0303              1410.1770
 Red. masses --      1.2310                 1.2920                 1.2985
 Frc consts  --      1.3804                 1.4666                 1.5214
 IR Inten    --     39.1482               136.5395               176.3253

                     43                     44                     45
                      A                      A                      A
 Frequencies --   1420.5090              1434.2007              1451.1087
 Red. masses --      1.3168                 1.1273                 1.0401
 Frc consts  --      1.5655                 1.3662                 1.2904
 IR Inten    --     98.7669                64.6484                26.1072

                     46                     47                     48
                      A                      A                      A
 Frequencies --   1454.7631              1465.4467              1466.4814
 Red. masses --      1.0484                 1.1136                 1.0741
 Frc consts  --      1.3072                 1.4090                 1.3610
 IR Inten    --     24.7606                87.1009                74.7750

                     49                     50                     51
                      A                      A                      A
 Frequencies --   1474.7610              1491.0869              1505.3728
 Red. masses --      1.3386                 1.2620                 1.2433
 Frc consts  --      1.7153                 1.6531                 1.6600
 IR Inten    --    432.7371               362.1290                80.6065

                     52                     53                     54
                      A                      A                      A
 Frequencies --   1520.0098              1557.0373              1610.9411
 Red. masses --      1.1360                 1.1927                 5.0944
 Frc consts  --      1.5465                 1.7036                 7.7893
 IR Inten    --     50.1701               764.7573              1007.7108

                     55                     56                     57
                      A                      A                      A
 Frequencies --   1831.0022              2261.1366              2614.7265
 Red. masses --      1.0808                 1.1081                 1.0930
 Frc consts  --      2.1349                 3.3380                 4.4028
 IR Inten    --    254.1526              3065.6901              3625.3211

                     58                     59                     60
                      A                      A                      A
 Frequencies --   3061.6935              3068.2024              3069.2825
 Red. masses --      1.0668                 1.0380                 1.0372
 Frc consts  --      5.8922                 5.7570                 5.7570
 IR Inten    --     68.3326                 8.7851                 8.7025

                     61                     62                     63
                      A                      A                      A
 Frequencies --   3078.2322              3134.9604              3151.0527
 Red. masses --      1.0655                 1.1022                 1.1043
 Frc consts  --      5.9484                 6.3825                 6.4603
 IR Inten    --     44.5860                13.5554                 1.7866

                     64                     65                     66
                      A                      A                      A
 Frequencies --   3161.6791              3164.2201              3169.0084
 Red. masses --      1.1055                 1.0521                 1.1057
 Frc consts  --      6.5107                 6.2063                 6.5422
 IR Inten    --     36.3407                 2.0598                28.6941

                     67                     68                     69
                      A                      A                      A
 Frequencies --   3176.7450              3178.3561              3290.4268
 Red. masses --      1.1045                 1.1053                 1.1210
 Frc consts  --      6.5675                 6.5784                 7.1506
 IR Inten    --     12.8141                12.1207                 0.1712

 - Thermochemistry -
 -------------------
 Temperature   298.150 Kelvin.  Pressure   1.00000 Atm.
 Atom     1 has atomic number  7 and mass  14.00307

 Molecular mass:   153.10011 amu.
 Principal axes and moments of inertia in atomic units:
                           1         2         3
     Eigenvalues --  1610.880952190.784873510.65000
           X            0.99966   0.02608   0.00134
           Y           -0.02608   0.99966   0.00000
           Z           -0.00134  -0.00003   1.00000
 This molecule is an asymmetric top.
 Rotational symmetry number  1.
 Warning -- assumption of classical behavior for rotation
           may cause significant error
 Rotational temperatures (Kelvin)      0.05377     0.03954     0.02467
 Rotational constants (GHZ):           1.12034     0.82379     0.51408
    1 imaginary frequencies ignored.
 Zero-point vibrational energy     551325.7 (Joules/Mol)
                                  131.76999 (Kcal/Mol)
 Warning -- explicit consideration of  17 degrees of freedom as
           vibrations may cause significant error
 Vibrational temperatures:     27.97    80.13    93.35   103.92   121.21
          (Kelvin)            129.65   191.14   201.97   225.42   375.53
                              394.00   406.87   538.33   575.81   727.88
                              779.22   816.64   944.27  1077.92  1101.63
                             1163.41  1179.58  1223.57  1323.76  1349.40
                             1519.59  1538.89  1569.52  1587.35  1610.53
                             1629.56  1645.35  1669.22  1686.46  1718.48
                             1881.70  1888.92  1927.56  1984.94  1997.06
                             2028.93  2043.79  2063.49  2087.82  2093.08
                             2108.45  2109.94  2121.85  2145.34  2165.89
                             2186.95  2240.23  2317.78  2634.40  3253.27
                             3762.00  4405.09  4414.45  4416.01  4428.88
                             4510.50  4533.66  4548.95  4552.60  4559.49
                             4570.62  4572.94  4734.18

 Zero-point correction=                           0.209989 (Hartree/Particle)
 Thermal correction to Energy=                    0.223202
 Thermal correction to Enthalpy=                  0.224146
 Thermal correction to Gibbs Free Energy=         0.167930
 Sum of electronic and zero-point Energies=           -554.185560
 Sum of electronic and thermal Energies=              -554.172347
 Sum of electronic and thermal Enthalpies=            -554.171403
 Sum of electronic and thermal Free Energies=         -554.227619

                     E (Thermal)             CV                S
                      KCal/Mol        Cal/Mol-Kelvin    Cal/Mol-Kelvin
 Total                  140.062             44.622            118.317
 Electronic               0.000              0.000              0.000
 Translational            0.889              2.981             40.988
 Rotational               0.889              2.981             30.894
 Vibrational            138.284             38.660             46.435
 Vibration     1          0.593              1.986              6.690
 Vibration     2          0.596              1.975              4.604
 Vibration     3          0.597              1.971              4.303
 Vibration     4          0.598              1.967              4.092
 Vibration     5          0.601              1.960              3.789
 Vibration     6          0.602              1.956              3.658
 Vibration     7          0.613              1.921              2.904
 Vibration     8          0.615              1.913              2.799
 Vibration     9          0.620              1.895              2.590
 Vibration    10          0.669              1.744              1.655
 Vibration    11          0.676              1.722              1.572
 Vibration    12          0.682              1.706              1.517
 Vibration    13          0.745              1.525              1.063
 Vibration    14          0.766              1.470              0.962
 Vibration    15          0.861              1.237              0.644
 Vibration    16          0.897              1.158              0.562
 Vibration    17          0.924              1.101              0.509

 1\1\GINC-DC1S5B1D\Freq\RM062X\def2SVP\C5H15N1O4\CHMBNN\06-Nov-2020\0\\
 # freq scrf=(cpcm,solvent=ethanol) pop=nbo def2svp m062x\\MeNO2+2EtOH
 TS3 freq\\0,1\N,2.329702,-0.124014,0.128362\O,3.363927,0.319198,-0.343
 45\O,1.967147,-1.303592,-0.177307\C,1.511569,0.638794,0.927742\H,0.928
 305,0.036616,1.626596\H,2.010449,1.53167,1.302992\H,0.262693,1.074362,
 -0.100802\O,-0.627011,1.024818,-0.677287\H,-0.70116,-0.121813,-0.71236
 9\O,-0.502171,-1.370314,-0.622957\H,0.51463,-1.420198,-0.448675\C,-1.7
 06238,1.667777,0.023029\H,-1.776204,1.255354,1.042459\H,-2.626235,1.41

 Normal termination of Gaussian 09 at Fri Nov  6 14:55:18 2020.
