 Gaussian 09, Revision D.01,
 Gaussian 09:  ES64L-G09RevD.01 24-Apr-2013

 ----------------------------------------------------
 # opt freq scrf=(cpcm,solvent=ethanol) def2svp m062x
 ----------------------------------------------------

 -----------------------------------
 MeNO2 + isatin TS4 product opt freq
 -----------------------------------
 Symbolic Z-matrix:
 Charge =  0 Multiplicity = 1

 SCF Done:  E(RM062X) =  -951.367753561     A.U. after   14 cycles
 SCF Done:  E(RM062X) =  -951.366714837     A.U. after   15 cycles
 SCF Done:  E(RM062X) =  -951.367987642     A.U. after   11 cycles
 SCF Done:  E(RM062X) =  -951.368598953     A.U. after   13 cycles
 SCF Done:  E(RM062X) =  -951.359657999     A.U. after   15 cycles
 SCF Done:  E(RM062X) =  -951.369093557     A.U. after   11 cycles
 SCF Done:  E(RM062X) =  -951.369898874     A.U. after   15 cycles
 SCF Done:  E(RM062X) =  -951.370014220     A.U. after   13 cycles
 SCF Done:  E(RM062X) =  -951.369579394     A.U. after   13 cycles
 SCF Done:  E(RM062X) =  -951.370285434     A.U. after    8 cycles
 SCF Done:  E(RM062X) =  -951.371215960     A.U. after   10 cycles
 SCF Done:  E(RM062X) =  -951.371217223     A.U. after    9 cycles
 SCF Done:  E(RM062X) =  -951.371217440     A.U. after   11 cycles
 SCF Done:  E(RM062X) =  -951.371218137     A.U. after    8 cycles
 SCF Done:  E(RM062X) =  -951.371218360     A.U. after    8 cycles
 SCF Done:  E(RM062X) =  -951.371218340     A.U. after    9 cycles
 SCF Done:  E(RM062X) =  -951.371218007     A.U. after    9 cycles
 SCF Done:  E(RM062X) =  -951.371217596     A.U. after    9 cycles
 SCF Done:  E(RM062X) =  -951.371217400     A.U. after    8 cycles
 Optimization completed.
    -- Stationary point found.
 Normal termination of Gaussian 09 at Sat Nov  7 09:54:50 2020.

 -------------------------------------------------------------------
 #N Geom=AllCheck Guess=TCheck SCRF=Check GenChk RM062X/def2SVP Freq
 -------------------------------------------------------------------

 Structure from the checkpoint file:  "MeNO2_isatin_TS4_product_opt.chk"
 -----------------------------------
 MeNO2 + isatin TS4 product opt freq
 -----------------------------------
 Charge =  0 Multiplicity = 1

                         Standard orientation:
 ---------------------------------------------------------------------
 Center     Atomic      Atomic             Coordinates (Angstroms)
 Number     Number       Type             X           Y           Z
 ---------------------------------------------------------------------
      1          7           0        1.498674   -0.701683    1.689645
      2          8           0        1.586490   -0.041610    2.692535
      3          8           0        2.423946   -0.984351    0.962214
      4          6           0        0.143128   -1.180459    1.283144
      5          1           0       -0.533588   -0.915896    2.100598
      6          1           0        0.214918   -2.267196    1.151296
      7          1           0        2.570317    0.756252   -0.703722
      8          6           0       -4.520129   -0.406847   -0.433118
      9          6           0       -3.741388    0.740671   -0.232422
     10          6           0       -2.368623    0.565743   -0.131009
     11          6           0       -1.777127   -0.700184   -0.215261
     12          6           0       -2.552008   -1.827935   -0.419872
     13          6           0       -3.941308   -1.672240   -0.529693
     14          1           0       -5.602812   -0.302830   -0.518314
     15          1           0       -4.196849    1.728664   -0.163591
     16          1           0       -2.092489   -2.814968   -0.499244
     17          1           0       -4.573278   -2.545446   -0.693356
     18          6           0       -0.281800   -0.543727   -0.057832
     19          6           0       -0.139011    0.999561    0.053145
     20          7           0       -1.381150    1.550191    0.042830
     21          8           0        0.918386    1.593259    0.142933
     22          8           0        0.407519   -1.060991   -1.143548
     23          6           0       -1.642530    2.969526    0.124052
     24          1           0       -2.153165    3.317403   -0.784925
     25          1           0       -2.268054    3.194543    0.998899
     26          1           0       -0.678945    3.481369    0.221547
     27          8           0        2.730465    0.282501   -1.536419
     28          1           0        1.289474   -0.629345   -1.248144
     29          6           0        3.960121   -0.423454   -1.461308
     30          1           0        3.796679   -1.419122   -1.017486
     31          1           0        4.302064   -0.570855   -2.496181
     32          6           0        4.994936    0.338022   -0.657768
     33          1           0        5.949376   -0.205549   -0.637046
     34          1           0        5.167646    1.333706   -1.090930
     35          1           0        4.646013    0.457179    0.379203
 ---------------------------------------------------------------------

 SCF Done:  E(RM062X) =  -951.371217400     A.U. after    1 cycles

 The electronic state is 1-A.
 Alpha  occ. eigenvalues --  -19.68129 -19.67867 -19.64000 -19.63589 -19.63444
 Alpha  occ. eigenvalues --  -15.01495 -14.82331 -10.68276 -10.64864 -10.62291
 Alpha  occ. eigenvalues --  -10.61498 -10.59871 -10.59431 -10.57618 -10.57513
 Alpha  occ. eigenvalues --  -10.57292 -10.57204 -10.56531 -10.54286  -1.37616
 Alpha  occ. eigenvalues --   -1.19146  -1.18755  -1.14450  -1.12930  -1.09010
 Alpha  occ. eigenvalues --   -0.96472  -0.93730  -0.88474  -0.85171  -0.83246
 Alpha  occ. eigenvalues --   -0.81550  -0.78390  -0.71409  -0.70731  -0.70346
 Alpha  occ. eigenvalues --   -0.68681  -0.67437  -0.64848  -0.63615  -0.62771
 Alpha  occ. eigenvalues --   -0.61723  -0.59063  -0.57398  -0.56673  -0.55803
 Alpha  occ. eigenvalues --   -0.54938  -0.54067  -0.52725  -0.51988  -0.51969
 Alpha  occ. eigenvalues --   -0.51727  -0.50818  -0.49668  -0.47718  -0.46863
 Alpha  occ. eigenvalues --   -0.46049  -0.44688  -0.44067  -0.43978  -0.43489
 Alpha  occ. eigenvalues --   -0.42271  -0.40722  -0.39796  -0.39252  -0.39120
 Alpha  occ. eigenvalues --   -0.38120  -0.36944  -0.35337  -0.34303  -0.32375
 Alpha  occ. eigenvalues --   -0.28430
 Alpha virt. eigenvalues --   -0.02976   0.00031   0.01237   0.05217   0.09987
 Alpha virt. eigenvalues --    0.10904   0.11395   0.12240   0.14057   0.15025
 Alpha virt. eigenvalues --    0.15615   0.15912   0.16025   0.16868   0.17390

 Mulliken charges:
               1
     1  N    0.193599
     2  O   -0.256950
     3  O   -0.281050
     4  C    0.263662
     5  H    0.079738
     6  H    0.108501
     7  H    0.207907
     8  C   -0.018938
     9  C   -0.090389
    10  C    0.191981
    11  C   -0.001358
    12  C   -0.050446
    13  C   -0.030101
    14  H    0.047626
    15  H    0.028946
    16  H    0.037715
    17  H    0.041959
    18  C   -0.121735
    19  C    0.284788
    20  N   -0.326309
    21  O   -0.304813
    22  O   -0.334217
    23  C    0.057361
    24  H    0.083468
    25  H    0.084417
    26  H    0.084121
    27  O   -0.414314
    28  H    0.206149
    29  C    0.126979
    30  H    0.035647
    31  H    0.043187
    32  C   -0.138489
    33  H    0.057798
    34  H    0.055193
    35  H    0.048368
 Sum of Mulliken charges =   0.00000

 Dipole moment (field-independent basis, Debye):
    X=             -5.7635    Y=              0.0070    Z=              1.0435  Tot=              5.8572
 Quadrupole moment (field-independent basis, Debye-Ang):
   XX=            -95.5049   YY=            -98.4575   ZZ=           -121.5549
   XY=             -6.6105   XZ=             -4.6662   YZ=             -3.5471

  Exact polarizability: 254.394   7.490 203.042   5.332  16.004 141.729
 Approx polarizability: 228.278   3.666 197.697  -0.016  19.959 147.440

                      1                      2                      3
                      A                      A                      A
 Frequencies --     15.0631                35.2348                46.8549
 Red. masses --      3.5653                 4.6349                 3.5526
 Frc consts  --      0.0005                 0.0034                 0.0046
 IR Inten    --      4.6606                 3.2427                 0.7838

                      4                      5                      6
                      A                      A                      A
 Frequencies --     66.3404                74.2861                95.3553
 Red. masses --      5.5859                 8.7842                 6.1182
 Frc consts  --      0.0145                 0.0286                 0.0328
 IR Inten    --      2.5322                 0.2585                 3.6603

                      7                      8                      9
                      A                      A                      A
 Frequencies --    115.2677               129.1901               135.8954
 Red. masses --      4.8317                 2.4968                 4.7423
 Frc consts  --      0.0378                 0.0246                 0.0516
 IR Inten    --      8.8957                 1.7368                11.8923

                     10                     11                     12
                      A                      A                      A
 Frequencies --    154.2754               169.3709               179.4227
 Red. masses --      1.2003                 5.2147                 2.0248
 Frc consts  --      0.0168                 0.0881                 0.0384
 IR Inten    --      0.0898                 0.4587                19.3750

                     13                     14                     15
                      A                      A                      A
 Frequencies --    185.9176               213.5477               246.6870
 Red. masses --      6.4743                 5.4263                 4.1322
 Frc consts  --      0.1319                 0.1458                 0.1482
 IR Inten    --      0.1415                 4.7566                 2.4694

                     16                     17                     18
                      A                      A                      A
 Frequencies --    291.1041               297.9857               310.1502
 Red. masses --      4.1692                 3.7943                 1.3583
 Frc consts  --      0.2082                 0.1985                 0.0770
 IR Inten    --     10.5296                 2.4946                14.8574

                     19                     20                     21
                      A                      A                      A
 Frequencies --    329.9538               355.5564               380.0113
 Red. masses --      6.5279                 4.3702                 6.5354
 Frc consts  --      0.4187                 0.3255                 0.5560
 IR Inten    --      7.7885                10.7233                34.5045

                     22                     23                     24
                      A                      A                      A
 Frequencies --    430.1340               471.7926               495.2403
 Red. masses --      2.3667                 3.5019                 6.4880
 Frc consts  --      0.2580                 0.4593                 0.9375
 IR Inten    --     35.2030                 9.9713                 8.5251

                     25                     26                     27
                      A                      A                      A
 Frequencies --    503.8526               547.8066               566.0834
 Red. masses --      4.0774                 4.2984                 1.2262
 Frc consts  --      0.6099                 0.7600                 0.2315
 IR Inten    --     25.4458                14.6798               170.6879

                     28                     29                     30
                      A                      A                      A
 Frequencies --    581.5011               587.7433               671.0819
 Red. masses --      3.4092                 3.2022                 5.2949
 Frc consts  --      0.6792                 0.6517                 1.4049
 IR Inten    --     14.6734                43.2007                40.0391

                     31                     32                     33
                      A                      A                      A
 Frequencies --    698.3993               704.7297               725.4492
 Red. masses --      2.7342                 1.3850                 4.9576
 Frc consts  --      0.7858                 0.4053                 1.5372
 IR Inten    --     69.7351               176.4987                13.8303

                     34                     35                     36
                      A                      A                      A
 Frequencies --    755.5891               778.3426               795.7281
 Red. masses --      4.3111                 1.4681                 3.8578
 Frc consts  --      1.4501                 0.5240                 1.4392
 IR Inten    --     29.4679                88.4289                 2.5041

                     37                     38                     39
                      A                      A                      A
 Frequencies --    805.0166               818.7411               900.7965
 Red. masses --      1.0783                 6.6038                 2.9042
 Frc consts  --      0.4117                 2.6082                 1.3884
 IR Inten    --      4.4142                11.4798                 8.6583

                     40                     41                     42
                      A                      A                      A
 Frequencies --    905.9769               914.7016               951.2655
 Red. masses --      1.6379                 1.9215                 2.4264
 Frc consts  --      0.7921                 0.9472                 1.2936
 IR Inten    --      2.5654                14.1342                 6.1600

                     43                     44                     45
                      A                      A                      A
 Frequencies --    969.6581               988.7377              1013.8118
 Red. masses --      4.6221                 1.5361                 5.4199
 Frc consts  --      2.5605                 0.8848                 3.2821
 IR Inten    --      5.0364                10.6001                22.9498

                     46                     47                     48
                      A                      A                      A
 Frequencies --   1031.7278              1049.7911              1056.9863
 Red. masses --      1.3404                 2.4578                 2.0610
 Frc consts  --      0.8406                 1.5959                 1.3566
 IR Inten    --      0.0355                 5.2101               120.9943

                     49                     50                     51
                      A                      A                      A
 Frequencies --   1069.8749              1108.4644              1131.0552
 Red. masses --      1.7401                 1.8691                 2.8385
 Frc consts  --      1.1735                 1.3531                 2.1395
 IR Inten    --     71.3742                86.7312               250.2723

                     52                     53                     54
                      A                      A                      A
 Frequencies --   1138.0447              1142.0859              1154.2689
 Red. masses --      1.8316                 1.3710                 1.4314
 Frc consts  --      1.3976                 1.0536                 1.1237
 IR Inten    --     12.0106                 5.4980                14.2161

                     55                     56                     57
                      A                      A                      A
 Frequencies --   1159.8376              1169.0930              1191.6548
 Red. masses --      1.8067                 1.7975                 2.9329
 Frc consts  --      1.4319                 1.4475                 2.4539
 IR Inten    --     81.1681                17.4095                25.8536

                     58                     59                     60
                      A                      A                      A
 Frequencies --   1226.5387              1264.4383              1283.1897
 Red. masses --      1.5531                 1.3238                 1.7167
 Frc consts  --      1.3766                 1.2470                 1.6655
 IR Inten    --      4.6413                60.2468                15.3955

                     61                     62                     63
                      A                      A                      A
 Frequencies --   1311.4343              1331.4085              1340.3089
 Red. masses --      1.9665                 1.1856                 1.6864
 Frc consts  --      1.9927                 1.2382                 1.7849
 IR Inten    --    126.7646                18.0313               182.2152

                     64                     65                     66
                      A                      A                      A
 Frequencies --   1352.1157              1370.5259              1407.4775
 Red. masses --      2.8403                 1.2548                 2.8057
 Frc consts  --      3.0595                 1.3886                 3.2747
 IR Inten    --     43.5669                14.4081                30.6884

                     67                     68                     69
                      A                      A                      A
 Frequencies --   1420.3750              1421.5793              1428.1706
 Red. masses --      1.1046                 1.3839                 1.4543
 Frc consts  --      1.3129                 1.6478                 1.7477
 IR Inten    --     22.4669               123.0367                40.0030

                     70                     71                     72
                      A                      A                      A
 Frequencies --   1450.3610              1452.4299              1455.8105
 Red. masses --      1.3748                 1.3106                 1.0559
 Frc consts  --      1.7039                 1.6290                 1.3185
 IR Inten    --     67.9986                61.4110                41.0005

                     73                     74                     75
                      A                      A                      A
 Frequencies --   1463.0691              1469.3847              1486.8181
 Red. masses --      1.4958                 1.1548                 1.3636
 Frc consts  --      1.8864                 1.4690                 1.7761
 IR Inten    --     28.7082                39.4666                95.5726

                     76                     77                     78
                      A                      A                      A
 Frequencies --   1503.5335              1523.4004              1546.4592
 Red. masses --      1.0913                 3.1115                13.4033
 Frc consts  --      1.4536                 4.2545                18.8860
 IR Inten    --      3.3067               167.8285               148.4423

                     79                     80                     81
                      A                      A                      A
 Frequencies --   1562.8023              1700.6767              1717.9019
 Red. masses --      4.5122                 7.7758                 7.9728
 Frc consts  --      6.4930                13.2506                13.8630
 IR Inten    --    125.6299                26.5721               197.2992

                     82                     83                     84
                      A                      A                      A
 Frequencies --   1772.4885              1837.7753              3054.5815
 Red. masses --     11.4812                11.5389                 1.0369
 Frc consts  --     21.2522                22.9614                 5.7000
 IR Inten    --    603.1302               827.8819                16.3971

                     85                     86                     87
                      A                      A                      A
 Frequencies --   3067.7750              3072.3776              3121.8738
 Red. masses --      1.0347                 1.0605                 1.1073
 Frc consts  --      5.7372                 5.8980                 6.3582
 IR Inten    --     38.1716                75.3098                29.3727

                     88                     89                     90
                      A                      A                      A
 Frequencies --   3127.8087              3151.6373              3157.5329
 Red. masses --      1.0594                 1.1054                 1.1080
 Frc consts  --      6.1063                 6.4692                 6.5085
 IR Inten    --      0.8426                45.2442                10.6881

                     91                     92                     93
                      A                      A                      A
 Frequencies --   3161.0278              3203.3750              3208.0907
 Red. masses --      1.1050                 1.1050                 1.0882
 Frc consts  --      6.5052                 6.6810                 6.5986
 IR Inten    --     25.8336                 0.0549                 0.1773

                     94                     95                     96
                      A                      A                      A
 Frequencies --   3215.7185              3222.4549              3224.8260
 Red. masses --      1.0929                 1.1135                 1.0971
 Frc consts  --      6.6586                 6.8128                 6.7221
 IR Inten    --      4.2319                 2.5616                 7.9443

                     97                     98                     99
                      A                      A                      A
 Frequencies --   3231.8662              3382.9260              3773.5371
 Red. masses --      1.0990                 1.0732                 1.0668
 Frc consts  --      6.7633                 7.2361                 8.9502
 IR Inten    --      1.7774              1637.1547               342.9727

 - Thermochemistry -
 -------------------
 Temperature   298.150 Kelvin.  Pressure   1.00000 Atm.
 Atom     1 has atomic number  7 and mass  14.00307

 Molecular mass:   268.10592 amu.
 Principal axes and moments of inertia in atomic units:
                           1         2         3
     Eigenvalues --  2575.210107687.270368055.44607
           X            0.99992  -0.00228  -0.01270
           Y            0.00250   0.99984   0.01772
           Z            0.01266  -0.01775   0.99976
 This molecule is an asymmetric top.
 Rotational symmetry number  1.
 Warning -- assumption of classical behavior for rotation
           may cause significant error
 Rotational temperatures (Kelvin)      0.03363     0.01127     0.01075
 Rotational constants (GHZ):           0.70081     0.23477     0.22404
 Zero-point vibrational energy     743421.8 (Joules/Mol)
                                  177.68207 (Kcal/Mol)
 Warning -- explicit consideration of  29 degrees of freedom as
           vibrations may cause significant error
 Vibrational temperatures:     21.67    50.69    67.41    95.45   106.88
          (Kelvin)            137.19   165.84   185.88   195.52   221.97
                              243.69   258.15   267.49   307.25   354.93
                              418.83   428.73   446.24   474.73   511.57
                              546.75   618.87   678.80   712.54   724.93
                              788.17   814.47   836.65   845.63   965.54
                             1004.84  1013.95  1043.76  1087.12  1119.86
                             1144.87  1158.24  1177.98  1296.04  1303.50
                             1316.05  1368.66  1395.12  1422.57  1458.65
                             1484.42  1510.41  1520.77  1539.31  1594.83
                             1627.33  1637.39  1643.20  1660.73  1668.75
                             1682.06  1714.52  1764.71  1819.24  1846.22
                             1886.86  1915.60  1928.40  1945.39  1971.88
                             2025.04  2043.60  2045.33  2054.82  2086.74
                             2089.72  2094.58  2105.03  2114.11  2139.20
                             2163.25  2191.83  2225.01  2248.52  2446.89
                             2471.67  2550.21  2644.15  4394.86  4413.84
                             4420.46  4491.67  4500.21  4534.50  4542.98
                             4548.01  4608.94  4615.72  4626.70  4636.39
                             4639.80  4649.93  4867.27  5429.27

 Zero-point correction=                           0.283154 (Hartree/Particle)
 Thermal correction to Energy=                    0.302091
 Thermal correction to Enthalpy=                  0.303035
 Thermal correction to Gibbs Free Energy=         0.234194
 Sum of electronic and zero-point Energies=           -951.088063
 Sum of electronic and thermal Energies=              -951.069126
 Sum of electronic and thermal Enthalpies=            -951.068182
 Sum of electronic and thermal Free Energies=         -951.137024

                     E (Thermal)             CV                S
                      KCal/Mol        Cal/Mol-Kelvin    Cal/Mol-Kelvin
 Total                  189.565             69.382            144.890
 Electronic               0.000              0.000              0.000
 Translational            0.889              2.981             42.658
 Rotational               0.889              2.981             33.433
 Vibrational            187.788             63.421             68.799
 Vibration     1          0.593              1.986              7.197
 Vibration     2          0.594              1.982              5.510
 Vibration     3          0.595              1.979              4.946
 Vibration     4          0.598              1.970              4.259
 Vibration     5          0.599              1.966              4.036
 Vibration     6          0.603              1.953              3.547
 Vibration     7          0.608              1.937              3.178
 Vibration     8          0.612              1.924              2.958
 Vibration     9          0.614              1.917              2.861
 Vibration    10          0.620              1.898              2.619
 Vibration    11          0.625              1.880              2.442
 Vibration    12          0.629              1.868              2.334
 Vibration    13          0.632              1.859              2.268
 Vibration    14          0.644              1.820              2.013
 Vibration    15          0.661              1.768              1.754
 Vibration    16          0.687              1.690              1.468
 Vibration    17          0.691              1.677              1.428
 Vibration    18          0.699              1.654              1.362
 Vibration    19          0.713              1.616              1.260
 Vibration    20          0.731              1.564              1.141
 Vibration    21          0.750              1.513              1.039
 Vibration    22          0.791              1.405              0.858
 Vibration    23          0.829              1.313              0.733
 Vibration    24          0.851              1.261              0.670
 Vibration    25          0.859              1.241              0.649
 Vibration    26          0.903              1.144              0.549
 Vibration    27          0.922              1.105              0.512
 Vibration    28          0.938              1.071              0.483
 Vibration    29          0.945              1.058              0.471

 Normal termination of Gaussian 09 at Sat Nov  7 10:26:24 2020.
