 Gaussian 09, Revision D.01,
 Gaussian 09:  ES64L-G09RevD.01 24-Apr-2013

 ----------------------------------------------------
 # opt freq scrf=(cpcm,solvent=ethanol) def2svp m062x
 ----------------------------------------------------

 ---------
 MeNO2 opt
 ---------
 Symbolic Z-matrix:
 Charge =  0 Multiplicity = 1

 SCF Done:  E(RM062X) =  -244.721681996     A.U. after   13 cycles
 Optimization completed.
    -- Stationary point found.
 Normal termination of Gaussian 09 at Mon Nov  2 14:39:36 2020.

 -------------------------------------------------------------------
 #N Geom=AllCheck Guess=TCheck SCRF=Check GenChk RM062X/def2SVP Freq
 -------------------------------------------------------------------

 Structure from the checkpoint file:  "MeNO2_opt.chk"
 ---------
 MeNO2 opt
 ---------
 Charge =  0 Multiplicity = 1

                         Standard orientation:
 ---------------------------------------------------------------------
 Center     Atomic      Atomic             Coordinates (Angstroms)
 Number     Number       Type             X           Y           Z
 ---------------------------------------------------------------------
      1          7           0       -0.169227   -0.000411   -0.010824
      2          8           0       -0.746945   -1.060304    0.002931
      3          8           0       -0.710218    1.079289    0.002750
      4          6           0        1.318288   -0.017806   -0.002251
      5          1           0        1.622995    0.140838    1.038622
      6          1           0        1.648534   -0.992539   -0.366183
      7          1           0        1.660635    0.809535   -0.628610
 ---------------------------------------------------------------------

 SCF Done:  E(RM062X) =  -244.721681996     A.U. after    1 cycles

 The electronic state is 1-A.
 Alpha  occ. eigenvalues --  -19.66967 -19.66844 -15.00733 -10.60955  -1.36687
 Alpha  occ. eigenvalues --   -1.17793  -0.90844  -0.69829  -0.64427  -0.62708
 Alpha  occ. eigenvalues --   -0.60928  -0.51009  -0.49035  -0.39184  -0.38482
 Alpha  occ. eigenvalues --   -0.38301
 Alpha virt. eigenvalues --   -0.01535   0.11524   0.16255   0.16731   0.17499
 Alpha virt. eigenvalues --    0.34167   0.42475   0.46761   0.49123   0.51678
 Alpha virt. eigenvalues --    0.62251   0.68245   0.69232   0.69341   0.77551

 Mulliken charges:
               1
     1  N    0.201736
     2  O   -0.291587
     3  O   -0.295120
     4  C    0.065354
     5  H    0.122264
     6  H    0.095167
     7  H    0.102186
 Sum of Mulliken charges =   0.00000

 Dipole moment (field-independent basis, Debye):
    X=              4.2821    Y=             -0.0454    Z=              0.0535  Tot=              4.2826
 Quadrupole moment (field-independent basis, Debye-Ang):
   XX=            -21.4488   YY=            -26.5989   ZZ=            -21.0758
   XY=             -0.0214   XZ=              0.1509   YZ=              0.0033

  Exact polarizability:  28.161   0.385  38.987   0.156   0.027  18.861
 Approx polarizability:  25.933   0.613  47.397   0.190  -0.004  18.807

                      1                      2                      3
                      A                      A                      A
 Frequencies --     13.4455               500.0148               633.8925
 Red. masses --      1.0959                 3.2620                 3.1695
 Frc consts  --      0.0001                 0.4805                 0.7504
 IR Inten    --      0.2238                 0.9993                11.7691

                      4                      5                      6
                      A                      A                      A
 Frequencies --    701.1050               987.0400              1109.5499
 Red. masses --      6.0758                 8.7837                 1.4082
 Frc consts  --      1.7596                 5.0420                 1.0214
 IR Inten    --     45.2267                17.5921                13.0441

                      7                      8                      9
                      A                      A                      A
 Frequencies --   1140.0258              1393.0190              1429.7119
 Red. masses --      1.6125                 1.1959                 1.0467
 Frc consts  --      1.2347                 1.3673                 1.2606
 IR Inten    --      5.8822                10.7867                56.6551

                     10                     11                     12
                      A                      A                      A
 Frequencies --   1442.9067              1555.6303              1770.5895
 Red. masses --      1.0494                13.4539                11.4549
 Frc consts  --      1.2873                19.1827                21.1581
 IR Inten    --     23.9438               146.0482               594.1643

                     13                     14                     15
                      A                      A                      A
 Frequencies --   3105.4677              3226.4574              3263.0546
 Red. masses --      1.0314                 1.1068                 1.1137
 Frc consts  --      5.8603                 6.7882                 6.9867
 IR Inten    --      0.7162                 3.1731                 1.8887

 - Thermochemistry -
 -------------------
 Temperature   298.150 Kelvin.  Pressure   1.00000 Atm.
 Atom     1 has atomic number  7 and mass  14.00307

 Molecular mass:    61.01638 amu.
 Principal axes and moments of inertia in atomic units:
                           1         2         3
     Eigenvalues --   142.53220 170.16919 301.11364
           X            0.99996  -0.00853   0.00093
           Y            0.00853   0.99996   0.00002
           Z           -0.00093  -0.00001   1.00000
 This molecule is an asymmetric top.
 Rotational symmetry number  1.
 Rotational temperatures (Kelvin)      0.60768     0.50899     0.28764
 Rotational constants (GHZ):          12.66199    10.60557     5.99356
 Zero-point vibrational energy     133215.6 (Joules/Mol)
                                   31.83929 (Kcal/Mol)
 Warning -- explicit consideration of   2 degrees of freedom as
           vibrations may cause significant error
 Vibrational temperatures:     19.35   719.41   912.03  1008.73  1420.13
          (Kelvin)           1596.39  1640.24  2004.24  2057.03  2076.02
                             2238.20  2547.48  4468.07  4642.15  4694.80

 Zero-point correction=                           0.050739 (Hartree/Particle)
 Thermal correction to Energy=                    0.055074
 Thermal correction to Enthalpy=                  0.056018
 Thermal correction to Gibbs Free Energy=         0.022376
 Sum of electronic and zero-point Energies=           -244.670943
 Sum of electronic and thermal Energies=              -244.666608
 Sum of electronic and thermal Enthalpies=            -244.665664
 Sum of electronic and thermal Free Energies=         -244.699306

                     E (Thermal)             CV                S
                      KCal/Mol        Cal/Mol-Kelvin    Cal/Mol-Kelvin
 Total                   34.560             12.282             70.806
 Electronic               0.000              0.000              0.000
 Translational            0.889              2.981             38.245
 Rotational               0.889              2.981             23.506
 Vibrational             32.782              6.321              9.054
 Vibration     1          0.593              1.987              7.423
 Vibration     2          0.855              1.250              0.658

 Optimization completed.
    -- Stationary point found.
 Normal termination of Gaussian 09 at Mon Nov  2 14:39:55 2020.
