 Gaussian 09, Revision D.01,
 Gaussian 09:  ES64L-G09RevD.01 24-Apr-2013

 ----------------------------------------------------------------------
 # freq b3lyp/6-31+g(d,p) scrf=(cpcm,solvent=water) pop=(nbo,savenbo) e
 mpiricaldispersion=gd3
 ----------------------------------------------------------------------

 ----------------
 B3LYP TS DA freq
 ----------------
 Symbolic Z-matrix:
 Charge =  0 Multiplicity = 1

                         Standard orientation:
 ---------------------------------------------------------------------
 Center     Atomic      Atomic             Coordinates (Angstroms)
 Number     Number       Type             X           Y           Z
 ---------------------------------------------------------------------
      1          6           0        2.944439    0.845560    0.193536
      2          6           0        1.985802   -0.152574    0.705824
      3          6           0        0.701016    0.257112    0.319505
      4          6           0        0.862488    1.528796   -0.439250
      5          1           0        2.228223   -0.766405    1.560125
      6          1           0       -0.209263    0.072363    0.872006
      7          6           0        2.810502    2.885743   -1.289587
      8          1           0        2.129989    3.194502   -2.083097
      9          1           0        2.966779    3.720342   -0.599641
     10          1           0        3.767807    2.585999   -1.716932
     11          7           0        2.225571    1.745755   -0.599082
     12          8           0       -0.011790    2.279593   -0.871737
     13          8           0        4.157607    0.934801    0.386504
     14          6           0        1.549188   -2.676319   -0.546154
     15          1           0        1.667627   -3.599134    0.018396
     16          6           0        0.248122   -2.262028   -0.853906
     17          1           0       -0.578703   -2.871234   -0.497806
     18          6           0        2.673667   -1.878291   -0.736956
     19          1           0        2.641543   -1.115519   -1.511023
     20          6           0        4.046590   -2.305082   -0.314673
     21          1           0        4.661763   -1.441971   -0.046386
     22          1           0        4.014742   -3.000334    0.529075
     23          1           0        4.549812   -2.804660   -1.153420
     24          6           0       -0.042037   -0.997981   -1.367833
     25          1           0        0.672301   -0.519785   -2.032376
     26          6           0       -1.455375   -0.547854   -1.598263
     27          1           0       -1.864318   -1.027979   -2.494352
     28          1           0       -1.500914    0.536667   -1.719521
     29          6           0       -3.539433   -0.655642   -0.341811
     30          6           0       -4.257199   -0.041476   -1.506558
     31          1           0       -4.127087   -0.640471   -2.411990
     32          1           0       -5.316576    0.042934   -1.269263
     33          1           0       -3.845424    0.955338   -1.688934
     34          8           0       -2.236360   -0.936275   -0.438573
     35          8           0       -4.082736   -0.927108    0.729348
     36          1           0        5.015953    0.119517    1.808066
     37          1           0       -1.701596    2.241797   -0.016154
     38          1           0       -2.930276   -0.339388    2.156881
     39          1           0       -5.817135   -0.418539    1.096715
     40          8           0       -2.453303    0.367329    2.632837
     41          1           0       -1.676798   -0.046309    3.031609
     42          8           0       -6.744572   -0.164997    1.276049
     43          1           0       -6.711176    0.770448    1.514371
     44          8           0       -2.572555    2.149935    0.411536
     45          1           0       -2.413606    1.627764    1.221323
     46          8           0        5.510548   -0.252120    2.565861
     47          1           0        5.096005   -1.105288    2.748060
 ---------------------------------------------------------------------

 SCF Done:  E(RB3LYP) =  -1167.14318106     A.U. after   16 cycles

 The electronic state is 1-A.
 Alpha  occ. eigenvalues --  -19.22525 -19.17463 -19.17230 -19.17207 -19.17099
 Alpha  occ. eigenvalues --  -19.15446 -19.15391 -19.14166 -14.40280 -10.35456
 Alpha  occ. eigenvalues --  -10.32941 -10.32761 -10.27088 -10.23547 -10.23381
 Alpha  occ. eigenvalues --  -10.23235 -10.22930 -10.22382 -10.21383 -10.21008
 Alpha  occ. eigenvalues --  -10.20840 -10.19244  -1.13456  -1.08989  -1.07047
 Alpha  occ. eigenvalues --   -1.04885  -1.02360  -1.00530  -1.00456  -0.99352
 Alpha  occ. eigenvalues --   -0.97764  -0.85554  -0.82689  -0.80454  -0.76737
 Alpha  occ. eigenvalues --   -0.74799  -0.71962  -0.69744  -0.67600  -0.63157
 Alpha  occ. eigenvalues --   -0.62216  -0.59616  -0.56527  -0.55388  -0.54411
 Alpha  occ. eigenvalues --   -0.53508  -0.53237  -0.52535  -0.52319  -0.51714
 Alpha  occ. eigenvalues --   -0.50973  -0.50225  -0.50100  -0.48214  -0.47900
 Alpha  occ. eigenvalues --   -0.46689  -0.45725  -0.45470  -0.44598  -0.44127
 Alpha  occ. eigenvalues --   -0.43366  -0.42745  -0.41998  -0.41852  -0.41142
 Alpha  occ. eigenvalues --   -0.40943  -0.40737  -0.40169  -0.40033  -0.38806
 Alpha  occ. eigenvalues --   -0.38666  -0.37901  -0.37709  -0.37347  -0.36592
 Alpha  occ. eigenvalues --   -0.35891  -0.33007  -0.32871  -0.31687  -0.31443
 Alpha  occ. eigenvalues --   -0.31304  -0.31058  -0.30505  -0.29727  -0.29315
 Alpha  occ. eigenvalues --   -0.26258  -0.24919
 Alpha virt. eigenvalues --   -0.09428  -0.05909  -0.02717  -0.00460   0.00185
 Alpha virt. eigenvalues --    0.00480   0.01064   0.01805   0.02280   0.02653
 Alpha virt. eigenvalues --    0.02855   0.03465   0.04089   0.04526   0.04729

 Mulliken charges:
               1
     1  C    0.196828
     2  C   -0.301803
     3  C   -0.307168
     4  C    0.215538
     5  H    0.184643
     6  H    0.198432
     7  C   -0.220310
     8  H    0.179211
     9  H    0.176272
    10  H    0.178081
    11  N    0.010158
    12  O   -0.548265
    13  O   -0.568211
    14  C   -0.398133
    15  H    0.147830
    16  C    0.154336
    17  H    0.154461
    18  C    0.547103
    19  H    0.152715
    20  C   -0.638207
    21  H    0.168733
    22  H    0.163194
    23  H    0.176544
    24  C    0.413066
    25  H    0.173320
    26  C   -0.821312
    27  H    0.182633
    28  H    0.182773
    29  C    0.363538
    30  C   -0.349101
    31  H    0.193011
    32  H    0.188048
    33  H    0.216173
    34  O   -0.330021
    35  O   -0.526738
    36  H    0.425825
    37  H    0.419330
    38  H    0.419704
    39  H    0.432617
    40  O   -0.781039
    41  H    0.394706
    42  O   -0.806643
    43  H    0.371180
    44  O   -0.794563
    45  H    0.413848
    46  O   -0.774273
    47  H    0.371936
 Sum of Mulliken charges =   0.00000

 Dipole moment (field-independent basis, Debye):
    X=              4.8188    Y=             -5.6940    Z=             -7.8823  Tot=             10.8523
 Quadrupole moment (field-independent basis, Debye-Ang):
   XX=           -221.9741   YY=           -133.7352   ZZ=           -132.7234
   XY=             -9.5537   XZ=              2.4490   YZ=             -5.4150

  Exact polarizability: 354.063  -6.217 314.913  19.857   4.013 239.260
 Approx polarizability: 389.023  -7.876 355.847  28.995  11.775 270.646

 Summary of Natural Population Analysis:

                                       Natural Population
                Natural  -----------------------------------------------
    Atom  No    Charge         Core      Valence    Rydberg      Total
 -----------------------------------------------------------------------
      C    1    0.69210      1.99924     3.26548    0.04317     5.30790
      C    2   -0.34334      1.99890     4.32451    0.01993     6.34334
      C    3   -0.33569      1.99890     4.31557    0.02122     6.33569
      C    4    0.69852      1.99925     3.25913    0.04310     5.30148
      H    5    0.29165      0.00000     0.70696    0.00139     0.70835
      H    6    0.29141      0.00000     0.70591    0.00268     0.70859
      C    7   -0.49225      1.99955     4.47979    0.01291     6.49225
      H    8    0.26527      0.00000     0.73338    0.00135     0.73473
      H    9    0.25288      0.00000     0.74597    0.00115     0.74712
      H   10    0.26358      0.00000     0.73520    0.00122     0.73642
      N   11   -0.50987      1.99921     5.49295    0.01771     7.50987
      O   12   -0.64120      1.99975     6.62052    0.02093     8.64120
      O   13   -0.64411      1.99974     6.62286    0.02151     8.64411
      C   14   -0.24450      1.99902     4.23050    0.01498     6.24450
      H   15    0.25740      0.00000     0.74110    0.00150     0.74260
      C   16   -0.21272      1.99902     4.19846    0.01524     6.21272
      H   17    0.26313      0.00000     0.73513    0.00174     0.73687
      C   18   -0.15852      1.99915     4.14099    0.01838     6.15852
      H   19    0.25316      0.00000     0.74498    0.00187     0.74684
      C   20   -0.73113      1.99942     4.72324    0.00847     6.73113
      H   21    0.26264      0.00000     0.73531    0.00205     0.73736
      H   22    0.25296      0.00000     0.74586    0.00119     0.74704
      H   23    0.26991      0.00000     0.72883    0.00126     0.73009
      C   24   -0.23840      1.99911     4.21810    0.02120     6.23840
      H   25    0.27425      0.00000     0.72419    0.00156     0.72575
      C   26   -0.14998      1.99914     4.13507    0.01576     6.14998
      H   27    0.26377      0.00000     0.73479    0.00144     0.73623
      H   28    0.26093      0.00000     0.73676    0.00231     0.73907
      C   29    0.87319      1.99943     3.08151    0.04587     5.12681
      C   30   -0.81381      1.99935     4.80763    0.00683     6.81381
      H   31    0.27893      0.00000     0.72004    0.00102     0.72107
      H   32    0.28035      0.00000     0.71796    0.00169     0.71965
      H   33    0.29224      0.00000     0.70659    0.00117     0.70776
      O   34   -0.55026      1.99969     6.52877    0.02181     8.55026
      O   35   -0.68709      1.99972     6.66193    0.02544     8.68709
      H   36    0.51975      0.00000     0.47601    0.00424     0.48025
      H   37    0.51309      0.00000     0.48305    0.00386     0.48691
      H   38    0.52770      0.00000     0.46780    0.00450     0.47230
      H   39    0.52058      0.00000     0.47526    0.00416     0.47942
      O   40   -1.04635      1.99988     7.02939    0.01707     9.04635
      H   41    0.52572      0.00000     0.47158    0.00271     0.47428
      O   42   -1.05740      1.99989     7.04218    0.01534     9.05740
      H   43    0.51084      0.00000     0.48645    0.00271     0.48916
      O   44   -1.07282      1.99987     7.05670    0.01624     9.07282
      H   45    0.51908      0.00000     0.47763    0.00330     0.48092
      O   46   -1.05544      1.99989     7.04022    0.01533     9.05544
      H   47    0.50990      0.00000     0.48734    0.00276     0.49010
 =======================================================================
   * Total *    0.00000     43.98713   129.49959    0.51328   174.00000

 ******    1 imaginary frequencies (negative Signs) ******

                      1                      2                      3
                      A                      A                      A
 Frequencies --   -420.0618                10.9180                18.1527
 Red. masses --      8.2739                 6.3897                 5.8177
 Frc consts  --      0.8602                 0.0004                 0.0011
 IR Inten    --     10.3384                 3.7588                 0.8823

                      4                      5                      6
                      A                      A                      A
 Frequencies --     25.8027                31.9484                35.6433
 Red. masses --      6.3841                 4.8561                 1.1729
 Frc consts  --      0.0025                 0.0029                 0.0009
 IR Inten    --      6.0048                 6.6968                 0.4418

                      7                      8                      9
                      A                      A                      A
 Frequencies --     42.7413                46.8183                58.4868
 Red. masses --      6.0532                 5.1123                 4.1050
 Frc consts  --      0.0065                 0.0066                 0.0083
 IR Inten    --      6.6553                 0.6365                 8.7667

                     10                     11                     12
                      A                      A                      A
 Frequencies --     68.2477                74.3670                76.7059
 Red. masses --      3.7761                 1.5600                 2.1779
 Frc consts  --      0.0104                 0.0051                 0.0076
 IR Inten    --     19.0144               148.3633                53.5659

                     13                     14                     15
                      A                      A                      A
 Frequencies --     77.7945                81.6687                92.9646
 Red. masses --      5.9620                 5.1060                 4.1947
 Frc consts  --      0.0213                 0.0201                 0.0214
 IR Inten    --     17.6367                24.7408                 0.5590

                     16                     17                     18
                      A                      A                      A
 Frequencies --    121.6218               123.4666               140.3686
 Red. masses --      1.2343                 3.6887                 3.6888
 Frc consts  --      0.0108                 0.0331                 0.0428
 IR Inten    --    133.5557                16.0382                 0.2044

                     19                     20                     21
                      A                      A                      A
 Frequencies --    143.5699               148.4191               154.4120
 Red. masses --      3.0316                 2.1191                 2.9020
 Frc consts  --      0.0368                 0.0275                 0.0408
 IR Inten    --      2.7941                 5.5597                 2.1080

                     22                     23                     24
                      A                      A                      A
 Frequencies --    159.0339               170.4983               175.5622
 Red. masses --      3.6916                 4.8732                 7.1170
 Frc consts  --      0.0550                 0.0835                 0.1292
 IR Inten    --      6.0324                17.4088                32.3605

                     25                     26                     27
                      A                      A                      A
 Frequencies --    183.6219               187.2905               195.1583
 Red. masses --      1.9874                 3.8935                 2.8500
 Frc consts  --      0.0395                 0.0805                 0.0640
 IR Inten    --      6.8194                 2.3595                 6.8775

                     28                     29                     30
                      A                      A                      A
 Frequencies --    197.2088               202.7415               227.2241
 Red. masses --      4.6094                 4.9762                 3.7035
 Frc consts  --      0.1056                 0.1205                 0.1127
 IR Inten    --      4.3439                23.7043                 7.0648

                     31                     32                     33
                      A                      A                      A
 Frequencies --    263.1750               273.2961               289.5612
 Red. masses --      2.1240                 1.1760                 2.7958
 Frc consts  --      0.0867                 0.0517                 0.1381
 IR Inten    --     17.7742               157.6725                 7.2667

                     34                     35                     36
                      A                      A                      A
 Frequencies --    297.5036               314.6704               325.2187
 Red. masses --      3.2686                 2.6837                 1.0987
 Frc consts  --      0.1704                 0.1566                 0.0685
 IR Inten    --     17.7923                24.0684                66.8332

                     37                     38                     39
                      A                      A                      A
 Frequencies --    340.8806               365.1406               388.0729
 Red. masses --      1.0893                 3.0910                 1.7332
 Frc consts  --      0.0746                 0.2428                 0.1538
 IR Inten    --    150.3369                 0.5420                30.1519

                     40                     41                     42
                      A                      A                      A
 Frequencies --    419.9332               434.7993               463.6555
 Red. masses --      2.3107                 3.3618                 3.0418
 Frc consts  --      0.2401                 0.3745                 0.3853
 IR Inten    --     89.8334                45.3594                 6.6715

                     43                     44                     45
                      A                      A                      A
 Frequencies --    488.2560               500.3348               539.9966
 Red. masses --      2.8736                 1.0972                 1.1297
 Frc consts  --      0.4036                 0.1618                 0.1941
 IR Inten    --      3.9222                74.0098               223.1605

                     46                     47                     48
                      A                      A                      A
 Frequencies --    553.7577               570.5897               582.0479
 Red. masses --      3.5274                 2.4318                 1.0681
 Frc consts  --      0.6373                 0.4665                 0.2132
 IR Inten    --     78.0839                45.7887               202.6618

                     49                     50                     51
                      A                      A                      A
 Frequencies --    600.6853               604.0842               615.6599
 Red. masses --      1.2332                 2.8183                 4.6042
 Frc consts  --      0.2622                 0.6059                 1.0282
 IR Inten    --    153.6575                86.7748                46.8525

                     52                     53                     54
                      A                      A                      A
 Frequencies --    629.7487               646.4557               711.2563
 Red. masses --      3.1580                 1.1872                 3.7992
 Frc consts  --      0.7379                 0.2923                 1.1324
 IR Inten    --     17.5201               167.4321                 8.3860

                     55                     56                     57
                      A                      A                      A
 Frequencies --    720.5629               726.5702               740.8341
 Red. masses --      5.9157                 5.1999                 1.1502
 Frc consts  --      1.8097                 1.6173                 0.3719
 IR Inten    --    108.7952                26.8311               219.2222

                     58                     59                     60
                      A                      A                      A
 Frequencies --    758.8392               771.5694               791.6106
 Red. masses --      6.5681                 5.2199                 1.3680
 Frc consts  --      2.2284                 1.8309                 0.5051
 IR Inten    --     12.0017                11.9779                54.5631

                     61                     62                     63
                      A                      A                      A
 Frequencies --    831.3755               857.9199               903.8406
 Red. masses --      1.9570                 2.0084                 1.4115
 Frc consts  --      0.7969                 0.8709                 0.6794
 IR Inten    --      7.9563                 5.6012                11.5912

                     64                     65                     66
                      A                      A                      A
 Frequencies --    929.3115               941.7549               966.0073
 Red. masses --      1.5282                 1.3456                 1.4319
 Frc consts  --      0.7776                 0.7032                 0.7873
 IR Inten    --     26.8176               103.3495               117.3704

                     67                     68                     69
                      A                      A                      A
 Frequencies --    971.5899               997.0707              1016.4505
 Red. masses --      1.9011                 1.6889                 1.3713
 Frc consts  --      1.0574                 0.9893                 0.8348
 IR Inten    --     66.9740                42.4458                59.5744

                     70                     71                     72
                      A                      A                      A
 Frequencies --   1031.1992              1041.1188              1054.5907
 Red. masses --      1.6310                 1.5982                 1.4916
 Frc consts  --      1.0218                 1.0206                 0.9774
 IR Inten    --     25.8683                68.4424                24.0115

                     73                     74                     75
                      A                      A                      A
 Frequencies --   1062.2569              1076.9291              1082.1148
 Red. masses --      1.8076                 1.6113                 3.5135
 Frc consts  --      1.2017                 1.1010                 2.4240
 IR Inten    --     20.7949                27.3298                86.0849

                     76                     77                     78
                      A                      A                      A
 Frequencies --   1128.8275              1132.0471              1147.7403
 Red. masses --      2.5217                 1.8750                 2.8830
 Frc consts  --      1.8932                 1.4157                 2.2376
 IR Inten    --     43.3381                19.3063               104.5835

                     79                     80                     81
                      A                      A                      A
 Frequencies --   1148.7606              1179.1909              1260.3733
 Red. masses --      1.3592                 2.0636                 1.1801
 Frc consts  --      1.0568                 1.6906                 1.1045
 IR Inten    --     36.7315                 7.9466                43.4568

                     82                     83                     84
                      A                      A                      A
 Frequencies --   1278.4283              1286.4710              1290.7280
 Red. masses --      2.2662                 1.5909                 1.4052
 Frc consts  --      2.1822                 1.5513                 1.3793
 IR Inten    --    119.2925                81.6953                22.3013

                     85                     86                     87
                      A                      A                      A
 Frequencies --   1308.8010              1342.4072              1349.2470
 Red. masses --      2.6135                 1.6632                 1.4164
 Frc consts  --      2.6377                 1.7659                 1.5193
 IR Inten    --    677.1224                 3.7411                29.8802

                     88                     89                     90
                      A                      A                      A
 Frequencies --   1371.2917              1398.6271              1410.1920
 Red. masses --      1.8138                 1.3919                 1.7388
 Frc consts  --      2.0095                 1.6042                 2.0373
 IR Inten    --     18.5884               197.6406               176.7634

                     91                     92                     93
                      A                      A                      A
 Frequencies --   1413.4930              1424.7123              1427.6334
 Red. masses --      1.7857                 1.6307                 2.1096
 Frc consts  --      2.1020                 1.9502                 2.5332
 IR Inten    --    204.0371                23.9498                11.1232

                     94                     95                     96
                      A                      A                      A
 Frequencies --   1463.4217              1467.2758              1471.3952
 Red. masses --      1.3057                 1.0937                 1.0625
 Frc consts  --      1.6475                 1.3874                 1.3553
 IR Inten    --    167.6020                31.2283                36.9531

                     97                     98                     99
                      A                      A                      A
 Frequencies --   1479.7734              1488.9472              1491.5944
 Red. masses --      1.0495                 1.3197                 1.0913
 Frc consts  --      1.3540                 1.7238                 1.4305
 IR Inten    --     16.6284               119.8114                16.5584

                    100                    101                    102
                      A                      A                      A
 Frequencies --   1493.4102              1503.0501              1590.4585
 Red. masses --      1.0820                 1.0618                 3.1525
 Frc consts  --      1.4217                 1.4133                 4.6983
 IR Inten    --     22.7400                17.3355                37.2325

                    103                    104                    105
                      A                      A                      A
 Frequencies --   1595.6603              1602.8973              1624.9319
 Red. masses --      3.5187                 1.1086                 1.0769
 Frc consts  --      5.2785                 1.6781                 1.6753
 IR Inten    --     56.9476               125.8882                96.3696

                    106                    107                    108
                      A                      A                      A
 Frequencies --   1651.4791              1660.7709              1685.6400
 Red. masses --      1.0916                 1.1225                 7.2483
 Frc consts  --      1.7541                 1.8241                12.1344
 IR Inten    --    286.9098               343.2097              1605.4696

                    109                    110                    111
                      A                      A                      A
 Frequencies --   1718.0968              1763.4866              3028.8546
 Red. masses --      7.5836                10.7831                 1.0438
 Frc consts  --     13.1893                19.7578                 5.6421
 IR Inten    --    696.3182               367.9958                27.5572

                    112                    113                    114
                      A                      A                      A
 Frequencies --   3057.2847              3062.2848              3066.8331
 Red. masses --      1.0617                 1.0370                 1.0371
 Frc consts  --      5.8467                 5.7296                 5.7469
 IR Inten    --     20.8116                59.0998                 2.6477

                    115                    116                    117
                      A                      A                      A
 Frequencies --   3097.0396              3129.5375              3134.6484
 Red. masses --      1.0907                 1.1028                 1.1027
 Frc consts  --      6.1641                 6.3637                 6.3837
 IR Inten    --     14.5787                 2.9139                13.4969

                    118                    119                    120
                      A                      A                      A
 Frequencies --   3139.5088              3142.5254              3164.8236
 Red. masses --      1.1011                 1.0999                 1.0895
 Frc consts  --      6.3945                 6.3997                 6.4292
 IR Inten    --      0.9590                15.4269                 6.8166

                    121                    122                    123
                      A                      A                      A
 Frequencies --   3175.3690              3176.8216              3179.1916
 Red. masses --      1.0868                 1.1061                 1.0896
 Frc consts  --      6.4565                 6.5773                 6.4884
 IR Inten    --     23.0126                 3.6756                11.9755

                    124                    125                    126
                      A                      A                      A
 Frequencies --   3180.9721              3190.7328              3254.0847
 Red. masses --      1.1040                 1.0903                 1.0922
 Frc consts  --      6.5816                 6.5401                 6.8141
 IR Inten    --      4.0715                16.0002                 3.1183

                    127                    128                    129
                      A                      A                      A
 Frequencies --   3273.4767              3590.5023              3592.4769
 Red. masses --      1.0973                 1.0594                 1.0586
 Frc consts  --      6.9279                 8.0464                 8.0493
 IR Inten    --      3.5052              1111.8219               697.7684

                    130                    131                    132
                      A                      A                      A
 Frequencies --   3602.6755              3640.1477              3687.5004
 Red. masses --      1.0504                 1.0555                 1.0832
 Frc consts  --      8.0328                 8.2405                 8.6778
 IR Inten    --    527.8659               396.9687               839.5336

                    133                    134                    135
                      A                      A                      A
 Frequencies --   3866.9613              3869.3539              3872.3343
 Red. masses --      1.0702                 1.0701                 1.0723
 Frc consts  --      9.4290                 9.4399                 9.4735
 IR Inten    --    130.3172               110.1481               132.4800

 - Thermochemistry -
 -------------------
 Temperature   298.150 Kelvin.  Pressure   1.00000 Atm.
 Atom     1 has atomic number  6 and mass  12.00000

 Molecular mass:   323.15802 amu.
 Principal axes and moments of inertia in atomic units:
                           1         2         3
     Eigenvalues --  4353.85967********************
           X            0.99994  -0.01038   0.00194
           Y            0.01043   0.99948  -0.03041
           Z           -0.00162   0.03043   0.99954
 This molecule is an asymmetric top.
 Rotational symmetry number  1.
 Warning -- assumption of classical behavior for rotation
           may cause significant error
 Rotational temperatures (Kelvin)      0.01989     0.00627     0.00586
 Rotational constants (GHZ):           0.41452     0.13057     0.12215
    1 imaginary frequencies ignored.
 Zero-point vibrational energy     998833.7 (Joules/Mol)
                                  238.72698 (Kcal/Mol)
 Warning -- explicit consideration of  50 degrees of freedom as
           vibrations may cause significant error
 Vibrational temperatures:     15.71    26.12    37.12    45.97    51.28
          (Kelvin)             61.50    67.36    84.15    98.19   107.00
                              110.36   111.93   117.50   133.76   174.99
                              177.64   201.96   206.56   213.54   222.16
                              228.81   245.31   252.59   264.19   269.47
                              280.79   283.74   291.70   326.92   378.65
                              393.21   416.61   428.04   452.74   467.92
                              490.45   525.36   558.35   604.19   625.58
                              667.10   702.49   719.87   776.93   796.73
                              820.95   837.44   864.25   869.14   885.80
                              906.07   930.10  1023.34  1036.73  1045.37
                             1065.89  1091.80  1110.11  1138.95  1196.16
                             1234.35  1300.42  1337.07  1354.97  1389.87
                             1397.90  1434.56  1462.44  1483.66  1497.94
                             1517.32  1528.35  1549.46  1556.92  1624.13
                             1628.76  1651.34  1652.81  1696.59  1813.39
                             1839.37  1850.94  1857.07  1883.07  1931.42
                             1941.26  1972.98  2012.31  2028.95  2033.70
                             2049.84  2054.04  2105.53  2111.08  2117.01
                             2129.06  2142.26  2146.07  2148.68  2162.55
                             2288.31  2295.80  2306.21  2337.91  2376.11
                             2389.48  2425.26  2471.95  2537.26  4357.84
                             4398.75  4405.94  4412.48  4455.94  4502.70
                             4510.05  4517.05  4521.39  4553.47  4568.64
                             4570.73  4574.14  4576.70  4590.75  4681.90
                             4709.80  5165.93  5168.77  5183.44  5237.35
                             5305.48  5563.69  5567.13  5571.42

 Zero-point correction=                           0.380436 (Hartree/Particle)
 Thermal correction to Energy=                    0.412019
 Thermal correction to Enthalpy=                  0.412963
 Thermal correction to Gibbs Free Energy=         0.313222
 Sum of electronic and zero-point Energies=          -1166.762745
 Sum of electronic and thermal Energies=             -1166.731162
 Sum of electronic and thermal Enthalpies=           -1166.730218
 Sum of electronic and thermal Free Energies=        -1166.829959

                     E (Thermal)             CV                S
                      KCal/Mol        Cal/Mol-Kelvin    Cal/Mol-Kelvin
 Total                  258.546            107.754            209.924
 Electronic               0.000              0.000              0.000
 Translational            0.889              2.981             43.214
 Rotational               0.889              2.981             35.140
 Vibrational            256.768            101.792            131.569
 Vibration     1          0.593              1.987              7.837
 Vibration     2          0.593              1.986              6.827
 Vibration     3          0.593              1.985              6.128
 Vibration     4          0.594              1.983              5.705
 Vibration     5          0.594              1.982              5.488
 Vibration     6          0.595              1.980              5.128
 Vibration     7          0.595              1.979              4.947
 Vibration     8          0.596              1.974              4.508
 Vibration     9          0.598              1.969              4.203
 Vibration    10          0.599              1.966              4.034
 Vibration    11          0.599              1.965              3.973
 Vibration    12          0.599              1.964              3.946
 Vibration    13          0.600              1.962              3.850
 Vibration    14          0.602              1.954              3.597
 Vibration    15          0.609              1.931              3.074
 Vibration    16          0.610              1.929              3.045
 Vibration    17          0.615              1.913              2.799
 Vibration    18          0.616              1.910              2.756
 Vibration    19          0.618              1.904              2.692
 Vibration    20          0.620              1.898              2.617
 Vibration    21          0.621              1.892              2.561
 Vibration    22          0.626              1.879              2.430
 Vibration    23          0.628              1.872              2.375
 Vibration    24          0.631              1.862              2.291
 Vibration    25          0.632              1.857              2.254
 Vibration    26          0.636              1.847              2.178
 Vibration    27          0.637              1.844              2.159
 Vibration    28          0.639              1.836              2.108
 Vibration    29          0.651              1.800              1.901
 Vibration    30          0.670              1.740              1.641
 Vibration    31          0.676              1.723              1.575
 Vibration    32          0.686              1.693              1.477
 Vibration    33          0.691              1.678              1.431
 Vibration    34          0.702              1.646              1.338
 Vibration    35          0.709              1.625              1.284
 Vibration    36          0.720              1.594              1.208
 Vibration    37          0.738              1.544              1.100
 Vibration    38          0.756              1.496              1.008
 Vibration    39          0.783              1.427              0.892
 Vibration    40          0.795              1.394              0.843
 Vibration    41          0.821              1.331              0.756
 Vibration    42          0.844              1.276              0.688
 Vibration    43          0.856              1.249              0.657
 Vibration    44          0.895              1.162              0.565
 Vibration    45          0.909              1.131              0.536
 Vibration    46          0.927              1.095              0.503
 Vibration    47          0.939              1.070              0.482
 Vibration    48          0.959              1.030              0.448
 Vibration    49          0.963              1.023              0.443
 Vibration    50          0.975              0.999              0.423

 Normal termination of Gaussian 09 at Wed Sep 16 14:13:35 2020.
