 Gaussian 09, Revision D.01,
 Gaussian 09:  ES64L-G09RevD.01 24-Apr-2013

 ----------------------------------------------------------------------
 # opt freq b3lyp/6-31+g(d,p) scrf=(cpcm,solvent=water) geom=connectivi
 ty empiricaldispersion=gd3
 ----------------------------------------------------------------------

 -------------------
 Title Card Required
 -------------------
 Symbolic Z-matrix:
 Charge =  0 Multiplicity = 1

 SCF Done:  E(RB3LYP) =  -551.680044533     A.U. after   13 cycles
 SCF Done:  E(RB3LYP) =  -551.684800424     A.U. after   12 cycles
 SCF Done:  E(RB3LYP) =  -551.685461995     A.U. after   11 cycles
 SCF Done:  E(RB3LYP) =  -551.685697706     A.U. after   10 cycles
 SCF Done:  E(RB3LYP) =  -551.686291933     A.U. after   11 cycles
 SCF Done:  E(RB3LYP) =  -551.686705393     A.U. after   11 cycles
 SCF Done:  E(RB3LYP) =  -551.687135300     A.U. after   11 cycles
 SCF Done:  E(RB3LYP) =  -551.687297836     A.U. after   10 cycles
 SCF Done:  E(RB3LYP) =  -551.687311800     A.U. after    9 cycles
 SCF Done:  E(RB3LYP) =  -551.687313833     A.U. after    8 cycles
 SCF Done:  E(RB3LYP) =  -551.687346514     A.U. after    8 cycles
 SCF Done:  E(RB3LYP) =  -551.687346635     A.U. after    7 cycles
 SCF Done:  E(RB3LYP) =  -551.687346871     A.U. after    8 cycles
 SCF Done:  E(RB3LYP) =  -551.687347134     A.U. after    8 cycles
 SCF Done:  E(RB3LYP) =  -551.687347366     A.U. after    8 cycles
 SCF Done:  E(RB3LYP) =  -551.687347519     A.U. after    7 cycles
 SCF Done:  E(RB3LYP) =  -551.687347606     A.U. after    7 cycles
 SCF Done:  E(RB3LYP) =  -551.687347628     A.U. after    7 cycles
 SCF Done:  E(RB3LYP) =  -551.687347640     A.U. after    7 cycles
 Optimization completed.
    -- Stationary point found.
 Normal termination of Gaussian 09 at Thu Aug 27 17:34:03 2020.

 ----------------------------------------------------------------------
 #N Geom=AllCheck Guess=TCheck SCRF=Check GenChk RB3LYP/6-31+G(d,p) Fre
 q
 ----------------------------------------------------------------------

 Structure from the checkpoint file:  "b3lyp_PM6_2H2O_dienophile_pm6_cpcmtoluene_1_water.chk"
 -------------------
 Title Card Required
 -------------------
 Charge =  0 Multiplicity = 1

                         Standard orientation:
 ---------------------------------------------------------------------
 Center     Atomic      Atomic             Coordinates (Angstroms)
 Number     Number       Type             X           Y           Z
 ---------------------------------------------------------------------
      1          6           0        1.133163    0.278023   -0.017319
      2          6           0        0.662555   -1.146110   -0.038423
      3          6           0       -0.674576   -1.140690   -0.035090
      4          6           0       -1.136534    0.286716   -0.011638
      5          1           0        1.353502   -1.978180   -0.052257
      6          1           0       -1.372606   -1.966888   -0.045589
      7          6           0        0.021709    2.540204    0.020307
      8          1           0       -1.010533    2.887621   -0.013331
      9          1           0        0.499542    2.894406    0.936369
     10          1           0        0.566610    2.919541   -0.846550
     11          7           0        0.002644    1.083243   -0.003876
     12          8           0       -2.287933    0.702600   -0.001899
     13          8           0        2.285646    0.692590   -0.013132
     14          8           0       -4.121505   -1.493017   -0.057927
     15          1           0       -4.636101   -1.528168    0.758827
     16          1           0       -3.590016   -0.676516    0.003333
     17          8           0        4.116305   -1.503870   -0.051767
     18          1           0        3.582403   -0.688084   -0.000142
     19          1           0        4.610688   -1.541723    0.777259
 ---------------------------------------------------------------------

 SCF Done:  E(RB3LYP) =  -551.687347640     A.U. after    1 cycles

 The electronic state is 1-A.
 Alpha  occ. eigenvalues --  -19.18825 -19.18813 -19.15735 -19.15713 -14.41182
 Alpha  occ. eigenvalues --  -10.34270 -10.34157 -10.24237 -10.24150 -10.23695
 Alpha  occ. eigenvalues --   -1.10435  -1.08648  -1.00887  -1.00830  -0.99126
 Alpha  occ. eigenvalues --   -0.85024  -0.73141  -0.70135  -0.63227  -0.57753
 Alpha  occ. eigenvalues --   -0.53703  -0.53073  -0.52329  -0.50836  -0.48987
 Alpha  occ. eigenvalues --   -0.47149  -0.46643  -0.44994  -0.43138  -0.42581
 Alpha  occ. eigenvalues --   -0.41607  -0.39015  -0.38909  -0.32928  -0.32668
 Alpha  occ. eigenvalues --   -0.31732  -0.31564  -0.30307  -0.29527
 Alpha virt. eigenvalues --   -0.11906   0.00108   0.01355   0.01945   0.02673
 Alpha virt. eigenvalues --    0.03369   0.04272   0.04506   0.04769   0.05226
 Alpha virt. eigenvalues --    0.07893   0.08003   0.08314   0.09044   0.09870

 Mulliken charges:
               1
     1  C    0.348779
     2  C   -0.012271
     3  C   -0.025074
     4  C    0.316828
     5  H    0.193661
     6  H    0.193569
     7  C   -0.244927
     8  H    0.184808
     9  H    0.180928
    10  H    0.180608
    11  N   -0.139859
    12  O   -0.587009
    13  O   -0.584159
    14  O   -0.787207
    15  H    0.374588
    16  H    0.409009
    17  O   -0.785929
    18  H    0.409333
    19  H    0.374324
 Sum of Mulliken charges =   0.00000

 Dipole moment (field-independent basis, Debye):
    X=             -0.1111    Y=              2.2322    Z=              3.6135  Tot=              4.2488
 Quadrupole moment (field-independent basis, Debye-Ang):
   XX=            -82.5501   YY=            -58.0934   ZZ=            -57.6455
   XY=             -0.0207   XZ=              0.0360   YZ=             -5.5142

  Exact polarizability: 158.901   0.942 105.074  -0.136  -0.350  68.573
 Approx polarizability: 195.526   0.778 108.671  -0.255  -0.273  76.196

                      1                      2                      3
                      A                      A                      A
 Frequencies --     19.6107                25.8470                34.6497
 Red. masses --      5.0775                 9.1328                 7.5882
 Frc consts  --      0.0012                 0.0036                 0.0054
 IR Inten    --      4.9802                 2.9489                 9.0648

                      4                      5                      6
                      A                      A                      A
 Frequencies --     41.6601                44.4862                72.7210
 Red. masses --      8.2961                 1.0429                 1.0589
 Frc consts  --      0.0085                 0.0012                 0.0033
 IR Inten    --     61.4030                 0.0356               180.9896

                      7                      8                      9
                      A                      A                      A
 Frequencies --     89.3136               142.3798               144.4870
 Red. masses --      1.0507                 6.0270                 5.6418
 Frc consts  --      0.0049                 0.0720                 0.0694
 IR Inten    --    200.0113                 0.3736                16.0449

                     10                     11                     12
                      A                      A                      A
 Frequencies --    154.6210               181.1942               292.0379
 Red. masses --      5.0431                 4.2715                 3.3741
 Frc consts  --      0.0710                 0.0826                 0.1695
 IR Inten    --     12.6243                 6.6174                56.0239

                     13                     14                     15
                      A                      A                      A
 Frequencies --    296.8322               329.3241               330.4959
 Red. masses --      3.5992                 1.0864                 1.1198
 Frc consts  --      0.1868                 0.0694                 0.0721
 IR Inten    --      1.0206               210.0492               107.4272

                     16                     17                     18
                      A                      A                      A
 Frequencies --    402.7892               569.7130               599.6341
 Red. masses --      7.6024                 2.5225                 1.3812
 Frc consts  --      0.7267                 0.4824                 0.2926
 IR Inten    --     29.1175               115.5304                63.1290

                     19                     20                     21
                      A                      A                      A
 Frequencies --    608.7528               621.7197               631.1624
 Red. masses --      1.2907                 2.8747                 2.1409
 Frc consts  --      0.2818                 0.6547                 0.5025
 IR Inten    --    361.1010                29.7855                 0.9510

                     22                     23                     24
                      A                      A                      A
 Frequencies --    706.3144               742.3469               767.7616
 Red. masses --      6.6736                 5.5333                 8.1255
 Frc consts  --      1.9616                 1.7966                 2.8220
 IR Inten    --     51.8152                 1.3872                 0.0194

                     25                     26                     27
                      A                      A                      A
 Frequencies --    835.0440               962.8558               976.2147
 Red. masses --      2.0570                 2.1984                 1.2918
 Frc consts  --      0.8451                 1.2008                 0.7254
 IR Inten    --    116.5941                67.4228                 0.0085

                     28                     29                     30
                      A                      A                      A
 Frequencies --   1055.7787              1123.9692              1147.6356
 Red. masses --      1.6441                 2.6690                 2.3447
 Frc consts  --      1.0798                 1.9866                 1.8195
 IR Inten    --     19.2805                65.3130                 1.3339

                     31                     32                     33
                      A                      A                      A
 Frequencies --   1151.2075              1284.0908              1324.1805
 Red. masses --      1.2990                 2.9293                 1.7062
 Frc consts  --      1.0143                 2.8459                 1.7627
 IR Inten    --      0.8480                78.5178                 4.0744

                     34                     35                     36
                      A                      A                      A
 Frequencies --   1422.5957              1477.9189              1482.6547
 Red. masses --      2.2708                 1.5446                 1.1049
 Frc consts  --      2.7076                 1.9877                 1.4311
 IR Inten    --    183.7298               147.8755                38.6718

                     37                     38                     39
                      A                      A                      A
 Frequencies --   1504.7929              1618.5728              1620.0088
 Red. masses --      1.1598                 1.0895                 1.0792
 Frc consts  --      1.5473                 1.6816                 1.6688
 IR Inten    --     37.0588                75.9932               183.6892

                     40                     41                     42
                      A                      A                      A
 Frequencies --   1650.5888              1712.2815              1805.2230
 Red. masses --      6.6519                10.5776                11.1731
 Frc consts  --     10.6777                18.2722                21.4528
 IR Inten    --      4.6590              1887.5111                 4.5372

                     43                     44                     45
                      A                      A                      A
 Frequencies --   3069.6791              3145.6165              3178.1480
 Red. masses --      1.0325                 1.1071                 1.1046
 Frc consts  --      5.7324                 6.4544                 6.5734
 IR Inten    --     36.8757                14.4317                 1.6064

                     46                     47                     48
                      A                      A                      A
 Frequencies --   3258.1058              3276.0935              3626.5789
 Red. masses --      1.0908                 1.1098                 1.0581
 Frc consts  --      6.8220                 7.0181                 8.1993
 IR Inten    --      4.3545                 4.6057               930.0587

                     49                     50                     51
                      A                      A                      A
 Frequencies --   3631.8831              3868.8879              3869.1667
 Red. masses --      1.0576                 1.0714                 1.0715
 Frc consts  --      8.2193                 9.4485                 9.4513
 IR Inten    --    559.6177               182.3798               119.0902

 - Thermochemistry -
 -------------------
 Temperature   298.150 Kelvin.  Pressure   1.00000 Atm.
 Atom     1 has atomic number  6 and mass  12.00000

 Molecular mass:   147.05316 amu.
 Principal axes and moments of inertia in atomic units:
                           1         2         3
     Eigenvalues --   915.780782960.133043855.11736
           X            1.00000   0.00025   0.00005
           Y           -0.00025   0.99997  -0.00777
           Z           -0.00006   0.00777   0.99997
 This molecule is an asymmetric top.
 Rotational symmetry number  1.
 Warning -- assumption of classical behavior for rotation
           may cause significant error
 Rotational temperatures (Kelvin)      0.09458     0.02926     0.02247
 Rotational constants (GHZ):           1.97071     0.60968     0.46814
 Zero-point vibrational energy     376402.8 (Joules/Mol)
                                   89.96242 (Kcal/Mol)
 Warning -- explicit consideration of  19 degrees of freedom as
           vibrations may cause significant error
 Vibrational temperatures:     28.22    37.19    49.85    59.94    64.01
          (Kelvin)            104.63   128.50   204.85   207.88   222.46
                              260.70   420.18   427.07   473.82   475.51
                              579.52   819.69   862.74   875.86   894.51
                              908.10  1016.23  1068.07  1104.64  1201.44
                             1385.33  1404.55  1519.03  1617.14  1651.19
                             1656.33  1847.52  1905.20  2046.80  2126.39
                             2133.21  2165.06  2328.76  2330.83  2374.83
                             2463.59  2597.31  4416.58  4525.83  4572.64
                             4687.68  4713.56  5217.83  5225.46  5566.46
                             5566.86

 Zero-point correction=                           0.143364 (Hartree/Particle)
 Thermal correction to Energy=                    0.157940
 Thermal correction to Enthalpy=                  0.158884
 Thermal correction to Gibbs Free Energy=         0.097835
 Sum of electronic and zero-point Energies=           -551.543983
 Sum of electronic and thermal Energies=              -551.529408
 Sum of electronic and thermal Enthalpies=            -551.528464
 Sum of electronic and thermal Free Energies=         -551.589513

                     E (Thermal)             CV                S
                      KCal/Mol        Cal/Mol-Kelvin    Cal/Mol-Kelvin
 Total                   99.109             46.119            128.489
 Electronic               0.000              0.000              0.000
 Translational            0.889              2.981             40.868
 Rotational               0.889              2.981             30.725
 Vibrational             97.331             40.157             56.896
 Vibration     1          0.593              1.986              6.673
 Vibration     2          0.593              1.985              6.125
 Vibration     3          0.594              1.983              5.544
 Vibration     4          0.594              1.981              5.179
 Vibration     5          0.595              1.980              5.049
 Vibration     6          0.599              1.967              4.078
 Vibration     7          0.602              1.957              3.675
 Vibration     8          0.616              1.911              2.772
 Vibration     9          0.616              1.909              2.744
 Vibration    10          0.620              1.898              2.615
 Vibration    11          0.630              1.865              2.316
 Vibration    12          0.687              1.689              1.462
 Vibration    13          0.690              1.680              1.435
 Vibration    14          0.712              1.617              1.263
 Vibration    15          0.713              1.615              1.258
 Vibration    16          0.768              1.464              0.952
 Vibration    17          0.926              1.097              0.505
 Vibration    18          0.958              1.033              0.450
 Vibration    19          0.968              1.013              0.435

 Normal termination of Gaussian 09 at Thu Aug 27 17:38:08 2020.
