 Gaussian 09, Revision D.01,
 Gaussian 09:  ES64L-G09RevD.01 24-Apr-2013

 ----------------------------------------------------------------------
 # opt freq b3lyp/6-31+g(d,p) scrf=(cpcm,solvent=water) geom=connectivi
 ty empiricaldispersion=gd3
 ----------------------------------------------------------------------

 -------------------
 Title Card Required
 -------------------
 Symbolic Z-matrix:
 Charge =  0 Multiplicity = 1

 SCF Done:  E(RB3LYP) =  -615.445826276     A.U. after   13 cycles
 SCF Done:  E(RB3LYP) =  -615.449894686     A.U. after   14 cycles
 SCF Done:  E(RB3LYP) =  -615.452658026     A.U. after   12 cycles
 SCF Done:  E(RB3LYP) =  -615.453225416     A.U. after   11 cycles
 SCF Done:  E(RB3LYP) =  -615.453544526     A.U. after   11 cycles
 SCF Done:  E(RB3LYP) =  -615.453889528     A.U. after   11 cycles
 SCF Done:  E(RB3LYP) =  -615.454365808     A.U. after   13 cycles
 SCF Done:  E(RB3LYP) =  -615.454628671     A.U. after   11 cycles
 SCF Done:  E(RB3LYP) =  -615.454936908     A.U. after   12 cycles
 SCF Done:  E(RB3LYP) =  -615.454996935     A.U. after   10 cycles
 SCF Done:  E(RB3LYP) =  -615.455169844     A.U. after    9 cycles
 SCF Done:  E(RB3LYP) =  -615.455172515     A.U. after    9 cycles
 SCF Done:  E(RB3LYP) =  -615.455173481     A.U. after    8 cycles
 SCF Done:  E(RB3LYP) =  -615.455173982     A.U. after    8 cycles
 SCF Done:  E(RB3LYP) =  -615.455174394     A.U. after    9 cycles
 SCF Done:  E(RB3LYP) =  -615.455174605     A.U. after    8 cycles
 SCF Done:  E(RB3LYP) =  -615.455174725     A.U. after    8 cycles
 SCF Done:  E(RB3LYP) =  -615.455174787     A.U. after    7 cycles
 SCF Done:  E(RB3LYP) =  -615.455174826     A.U. after    7 cycles
 Optimization completed.
    -- Stationary point found.
 Normal termination of Gaussian 09 at Thu Aug 27 17:32:59 2020.

 ----------------------------------------------------------------------
 #N Geom=AllCheck Guess=TCheck SCRF=Check GenChk RB3LYP/6-31+G(d,p) Fre
 q
 ----------------------------------------------------------------------

 Structure from the checkpoint file:  "b3lyp_PM6_2H2O_diene_pm6_cpcmtoluene_1_water.chk"
 -------------------
 Title Card Required
 -------------------
 Charge =  0 Multiplicity = 1

                         Standard orientation:
 ---------------------------------------------------------------------
 Center     Atomic      Atomic             Coordinates (Angstroms)
 Number     Number       Type             X           Y           Z
 ---------------------------------------------------------------------
      1          6           0       -3.351311    0.577464   -0.214294
      2          1           0       -3.540145    1.561395   -0.645932
      3          6           0       -1.945264    0.148234   -0.207307
      4          1           0       -1.202686    0.943467   -0.183251
      5          6           0       -4.392645   -0.110993    0.286736
      6          1           0       -4.206436   -1.069173    0.773593
      7          6           0       -5.822742    0.342203    0.244270
      8          1           0       -6.244172    0.413787    1.255257
      9          1           0       -5.925011    1.317482   -0.242406
     10          1           0       -6.444887   -0.379612   -0.301103
     11          6           0       -1.519635   -1.125008   -0.249701
     12          1           0       -2.231727   -1.944729   -0.329592
     13          6           0       -0.093374   -1.579132   -0.205628
     14          1           0        0.165220   -2.132511   -1.116578
     15          1           0        0.069480   -2.241349    0.652725
     16          6           0        2.093623   -0.524702    0.041755
     17          6           0        2.735318   -1.879975    0.130236
     18          1           0        2.471373   -2.494459   -0.735074
     19          1           0        3.816431   -1.760547    0.180246
     20          1           0        2.385899   -2.401186    1.027175
     21          8           0        0.771320   -0.420659   -0.096969
     22          8           0        2.727646    0.529411    0.100631
     23          8           0        5.554553    0.547417    0.222692
     24          1           0        4.578756    0.564880    0.165656
     25          1           0        5.865994    0.672747   -0.683019
     26          8           0        1.061542    2.866484   -0.067767
     27          1           0        1.674920    3.611791   -0.033091
     28          1           0        1.622692    2.068252   -0.009696
 ---------------------------------------------------------------------

 SCF Done:  E(RB3LYP) =  -615.455174826     A.U. after    1 cycles

 The electronic state is 1-A.
 Alpha  occ. eigenvalues --  -19.22490 -19.17690 -19.15444 -19.15308 -10.35603
 Alpha  occ. eigenvalues --  -10.26936 -10.21249 -10.20453 -10.19982 -10.19892
 Alpha  occ. eigenvalues --  -10.19435 -10.18600  -1.13536  -1.04934  -1.00534
 Alpha  occ. eigenvalues --   -1.00393  -0.82605  -0.79076  -0.76855  -0.73446
 Alpha  occ. eigenvalues --   -0.67182  -0.61973  -0.58264  -0.54364  -0.53267
 Alpha  occ. eigenvalues --   -0.52768  -0.51553  -0.51177  -0.50080  -0.47354
 Alpha  occ. eigenvalues --   -0.45214  -0.45105  -0.42640  -0.41654  -0.41274
 Alpha  occ. eigenvalues --   -0.40587  -0.39823  -0.39013  -0.38422  -0.37004
 Alpha  occ. eigenvalues --   -0.35925  -0.35123  -0.33218  -0.31566  -0.31191
 Alpha  occ. eigenvalues --   -0.31180  -0.30673  -0.23080
 Alpha virt. eigenvalues --   -0.03604  -0.02733  -0.00054   0.01407   0.01645
 Alpha virt. eigenvalues --    0.02912   0.03332   0.03904   0.04214   0.04929
 Alpha virt. eigenvalues --    0.05090   0.05721   0.06028   0.07037   0.07610

 Mulliken charges:
               1
     1  C   -0.609913
     2  H    0.132089
     3  C    0.303041
     4  H    0.156056
     5  C    0.203943
     6  H    0.134664
     7  C   -0.765037
     8  H    0.163104
     9  H    0.157505
    10  H    0.164282
    11  C   -0.060271
    12  H    0.148462
    13  C   -0.284750
    14  H    0.175698
    15  H    0.173192
    16  C    0.676148
    17  C   -0.449123
    18  H    0.198724
    19  H    0.193364
    20  H    0.205534
    21  O   -0.369608
    22  O   -0.638644
    23  O   -0.820074
    24  H    0.447527
    25  H    0.372525
    26  O   -0.831192
    27  H    0.388635
    28  H    0.434119
 Sum of Mulliken charges =   0.00000

 Dipole moment (field-independent basis, Debye):
    X=             -2.5085    Y=             -6.7407    Z=             -1.8954  Tot=              7.4379
 Quadrupole moment (field-independent basis, Debye-Ang):
   XX=            -84.7562   YY=            -65.5916   ZZ=            -76.2544
   XY=             -3.4585   XZ=            -13.0995   YZ=             -1.9214

  Exact polarizability: 204.936  -6.675 159.074  -7.806  -2.374 112.256
 Approx polarizability: 201.564  -1.408 176.509 -10.643  -3.365 122.097

                      1                      2                      3
                      A                      A                      A
 Frequencies --     21.8923                27.2894                37.4594
 Red. masses --      5.3563                 5.5796                 8.4222
 Frc consts  --      0.0015                 0.0024                 0.0070
 IR Inten    --      0.5448                 3.0722                22.2385

                      4                      5                      6
                      A                      A                      A
 Frequencies --     41.1571                46.2320                51.8339
 Red. masses --      3.3007                 3.6003                 3.0859
 Frc consts  --      0.0033                 0.0045                 0.0049
 IR Inten    --      5.6072                 8.9682                 2.5931

                      7                      8                      9
                      A                      A                      A
 Frequencies --     61.8320                81.6527                97.1349
 Red. masses --      1.0643                 3.8312                 1.1309
 Frc consts  --      0.0024                 0.0150                 0.0063
 IR Inten    --    188.9136                 4.9024               206.7254

                     10                     11                     12
                      A                      A                      A
 Frequencies --    131.5787               139.9478               150.7536
 Red. masses --      3.2105                 2.9882                 3.3365
 Frc consts  --      0.0327                 0.0345                 0.0447
 IR Inten    --      1.8398                 1.6708                 3.0444

                     13                     14                     15
                      A                      A                      A
 Frequencies --    157.7797               169.4202               195.6206
 Red. masses --      3.5452                 1.1327                 1.7485
 Frc consts  --      0.0520                 0.0192                 0.0394
 IR Inten    --      1.7515                 0.5513                11.9200

                     16                     17                     18
                      A                      A                      A
 Frequencies --    198.1492               221.4016               250.8795
 Red. masses --      2.8950                 1.8463                 3.5820
 Frc consts  --      0.0670                 0.0533                 0.1328
 IR Inten    --     10.6755                 1.6990                 5.8972

                     19                     20                     21
                      A                      A                      A
 Frequencies --    339.7332               350.9487               352.9481
 Red. masses --      2.5649                 1.0937                 1.0932
 Frc consts  --      0.1744                 0.0794                 0.0802
 IR Inten    --      4.1356               148.0926               116.0305

                     22                     23                     24
                      A                      A                      A
 Frequencies --    370.1290               469.4515               537.5056
 Red. masses --      2.5051                 4.0355                 4.1934
 Frc consts  --      0.2022                 0.5240                 0.7138
 IR Inten    --     26.7619                 5.6150                28.0488

                     25                     26                     27
                      A                      A                      A
 Frequencies --    555.8544               593.4504               604.8831
 Red. masses --      1.2587                 1.7933                 3.8352
 Frc consts  --      0.2291                 0.3721                 0.8268
 IR Inten    --     79.9765               101.6342                41.9134

                     28                     29                     30
                      A                      A                      A
 Frequencies --    661.3772               708.1510               772.1808
 Red. masses --      1.1165                 2.8781                 1.7071
 Frc consts  --      0.2878                 0.8504                 0.5997
 IR Inten    --    177.0984                17.2510                 3.9932

                     31                     32                     33
                      A                      A                      A
 Frequencies --    836.6775               852.2785               918.5347
 Red. masses --      2.2989                 2.7008                 1.7959
 Frc consts  --      0.9482                 1.1559                 0.8927
 IR Inten    --      2.4117                 3.7070                18.7189

                     34                     35                     36
                      A                      A                      A
 Frequencies --    989.7548               996.2343              1005.0464
 Red. masses --      1.2823                 1.8697                 1.1498
 Frc consts  --      0.7401                 1.0933                 0.6843
 IR Inten    --     34.1861                41.6082                83.4009

                     37                     38                     39
                      A                      A                      A
 Frequencies --   1027.1976              1040.5348              1062.2119
 Red. masses --      1.7484                 1.5986                 1.8151
 Frc consts  --      1.0869                 1.0197                 1.2066
 IR Inten    --      7.4075                50.5659                17.1489

                     40                     41                     42
                      A                      A                      A
 Frequencies --   1062.6532              1080.9534              1115.5904
 Red. masses --      1.5511                 3.2277                 2.6830
 Frc consts  --      1.0320                 2.2221                 1.9674
 IR Inten    --      1.9724                74.5975                66.4840

                     43                     44                     45
                      A                      A                      A
 Frequencies --   1127.2308              1274.3230              1307.8536
 Red. masses --      2.4906                 1.0664                 1.8846
 Frc consts  --      1.8645                 1.0203                 1.8993
 IR Inten    --      6.2634                 7.2874               332.6509

                     46                     47                     48
                      A                      A                      A
 Frequencies --   1319.3375              1322.6094              1347.8286
 Red. masses --      1.5785                 1.5879                 1.3231
 Frc consts  --      1.6189                 1.6365                 1.4161
 IR Inten    --    213.0433               233.2112                31.0089

                     49                     50                     51
                      A                      A                      A
 Frequencies --   1358.2324              1407.4982              1411.3807
 Red. masses --      1.3173                 1.3325                 1.2684
 Frc consts  --      1.4318                 1.5553                 1.4887
 IR Inten    --      5.3018               140.8796                 4.2801

                     52                     53                     54
                      A                      A                      A
 Frequencies --   1424.2900              1468.5866              1468.7955
 Red. masses --      1.4094                 1.0849                 1.0462
 Frc consts  --      1.6845                 1.3786                 1.3298
 IR Inten    --      1.9909                41.1631                18.0803

                     55                     56                     57
                      A                      A                      A
 Frequencies --   1477.3332              1482.7272              1490.8239
 Red. masses --      1.0512                 1.0602                 1.0878
 Frc consts  --      1.3517                 1.3733                 1.4244
 IR Inten    --     20.1896                23.0217                 2.7056

                     58                     59                     60
                      A                      A                      A
 Frequencies --   1625.0711              1630.6613              1701.7035
 Red. masses --      1.0782                 1.0805                 5.9287
 Frc consts  --      1.6776                 1.6928                10.1153
 IR Inten    --     97.9185               114.7644                12.3364

                     61                     62                     63
                      A                      A                      A
 Frequencies --   1713.5457              1720.2886              3018.0353
 Red. masses --      9.4058                 4.9310                 1.0371
 Frc consts  --     16.2719                 8.5978                 5.5656
 IR Inten    --    787.1966                 9.7801                55.3088

                     64                     65                     66
                      A                      A                      A
 Frequencies --   3037.5808              3063.6783              3066.6493
 Red. masses --      1.0561                 1.0382                 1.0998
 Frc consts  --      5.7415                 5.7416                 6.0937
 IR Inten    --     37.9190                 0.9956                29.3541

                     67                     68                     69
                      A                      A                      A
 Frequencies --   3081.7034              3105.7382              3131.7250
 Red. masses --      1.1078                 1.1006                 1.1006
 Frc consts  --      6.1986                 6.2548                 6.3598
 IR Inten    --     17.3022                24.7415                 1.5600

                     70                     71                     72
                      A                      A                      A
 Frequencies --   3133.1942              3144.1718              3167.0209
 Red. masses --      1.0897                 1.0873                 1.0929
 Frc consts  --      6.3027                 6.3330                 6.4588
 IR Inten    --     17.7749                60.8310                 1.6343

                     73                     74                     75
                      A                      A                      A
 Frequencies --   3172.5422              3182.3750              3596.5895
 Red. masses --      1.0857                 1.1037                 1.0590
 Frc consts  --      6.4384                 6.5855                 8.0708
 IR Inten    --     18.1510                 2.6410               952.4389

                     76                     77                     78
                      A                      A                      A
 Frequencies --   3619.9135              3867.8044              3869.1709
 Red. masses --      1.0583                 1.0703                 1.0708
 Frc consts  --      8.1704                 9.4340                 9.4446
 IR Inten    --    583.0431               100.1239               161.3770

 - Thermochemistry -
 -------------------
 Temperature   298.150 Kelvin.  Pressure   1.00000 Atm.
 Atom     1 has atomic number  6 and mass  12.00000

 Molecular mass:   176.10486 amu.
 Principal axes and moments of inertia in atomic units:
                           1         2         3
     Eigenvalues --  1091.600596721.110577726.09268
           X            0.99998  -0.00555  -0.00350
           Y            0.00553   0.99997  -0.00548
           Z            0.00353   0.00546   0.99998
 This molecule is an asymmetric top.
 Rotational symmetry number  1.
 Warning -- assumption of classical behavior for rotation
           may cause significant error
 Rotational temperatures (Kelvin)      0.07935     0.01289     0.01121
 Rotational constants (GHZ):           1.65330     0.26852     0.23359
 Zero-point vibrational energy     608446.5 (Joules/Mol)
                                  145.42220 (Kcal/Mol)
 Warning -- explicit consideration of  27 degrees of freedom as
           vibrations may cause significant error
 Vibrational temperatures:     31.50    39.26    53.90    59.22    66.52
          (Kelvin)             74.58    88.96   117.48   139.76   189.31
                              201.35   216.90   227.01   243.76   281.45
                              285.09   318.55   360.96   488.80   504.94
                              507.81   532.53   675.44   773.35   799.75
                              853.84   870.29   951.57  1018.87  1110.99
                             1203.79  1226.24  1321.56  1424.03  1433.36
                             1446.04  1477.91  1497.10  1528.28  1528.92
                             1555.25  1605.08  1621.83  1833.46  1881.71
                             1898.23  1902.94  1939.22  1954.19  2025.07
                             2030.66  2049.23  2112.97  2113.27  2125.55
                             2133.31  2144.96  2338.11  2346.15  2448.37
                             2465.41  2475.11  4342.27  4370.40  4407.94
                             4412.22  4433.88  4468.46  4505.85  4507.96
                             4523.76  4556.63  4564.57  4578.72  5174.68
                             5208.24  5564.90  5566.87

 Zero-point correction=                           0.231745 (Hartree/Particle)
 Thermal correction to Energy=                    0.250750
 Thermal correction to Enthalpy=                  0.251694
 Thermal correction to Gibbs Free Energy=         0.180644
 Sum of electronic and zero-point Energies=           -615.223430
 Sum of electronic and thermal Energies=              -615.204425
 Sum of electronic and thermal Enthalpies=            -615.203481
 Sum of electronic and thermal Free Energies=         -615.274531

                     E (Thermal)             CV                S
                      KCal/Mol        Cal/Mol-Kelvin    Cal/Mol-Kelvin
 Total                  157.348             61.520            149.538
 Electronic               0.000              0.000              0.000
 Translational            0.889              2.981             41.405
 Rotational               0.889              2.981             32.405
 Vibrational            155.570             55.559             75.728
 Vibration     1          0.593              1.985              6.455
 Vibration     2          0.593              1.984              6.017
 Vibration     3          0.594              1.982              5.389
 Vibration     4          0.594              1.981              5.203
 Vibration     5          0.595              1.979              4.972
 Vibration     6          0.596              1.977              4.746
 Vibration     7          0.597              1.973              4.398
 Vibration     8          0.600              1.962              3.851
 Vibration     9          0.603              1.951              3.511
 Vibration    10          0.612              1.922              2.923
 Vibration    11          0.615              1.913              2.805
 Vibration    12          0.618              1.902              2.663
 Vibration    13          0.621              1.894              2.576
 Vibration    14          0.625              1.880              2.442
 Vibration    15          0.636              1.846              2.174
 Vibration    16          0.637              1.842              2.150
 Vibration    17          0.648              1.808              1.948
 Vibration    18          0.663              1.761              1.724
 Vibration    19          0.720              1.596              1.213
 Vibration    20          0.728              1.573              1.162
 Vibration    21          0.729              1.569              1.153
 Vibration    22          0.742              1.534              1.079
 Vibration    23          0.827              1.318              0.739
 Vibration    24          0.893              1.167              0.571
 Vibration    25          0.911              1.127              0.532
 Vibration    26          0.951              1.046              0.461
 Vibration    27          0.963              1.021              0.441

 Normal termination of Gaussian 09 at Thu Aug 27 17:42:04 2020.
