 Gaussian 09, Revision D.01,
 Gaussian 09:  ES64L-G09RevD.01 24-Apr-2013

 ----------------------------------------------------------------------
 # freq scrf=(cpcm,solvent=water) geom=connectivity def2svp empiricaldi
 spersion=gd3 m062x
 ----------------------------------------------------------------------

 -------------------
 Title Card Required
 -------------------
 Symbolic Z-matrix:
 Charge =  0 Multiplicity = 1

                         Standard orientation:
 ---------------------------------------------------------------------
 Center     Atomic      Atomic             Coordinates (Angstroms)
 Number     Number       Type             X           Y           Z
 ---------------------------------------------------------------------
      1          6           0        2.365497    1.053408    0.676105
      2          6           0        1.946506   -0.377209    0.686917
      3          6           0        0.565883   -0.403088    0.537752
      4          6           0        0.095647    1.006735    0.503435
      5          1           0        2.575810   -1.116836    1.176220
      6          1           0       -0.107438   -1.204596    0.838506
      7          6           0        1.182467    3.256950    0.346719
      8          1           0        0.794772    3.702094    1.273600
      9          1           0        2.205665    3.608772    0.175618
     10          1           0        0.540006    3.548944   -0.493801
     11          7           0        1.221269    1.813011    0.443580
     12          8           0       -1.046066    1.424691    0.511646
     13          8           0        3.471004    1.527967    0.834836
     14          6           0        2.115312   -2.013738   -1.637169
     15          1           0        2.523072   -3.027865   -1.600364
     16          6           0        0.732815   -1.859046   -1.831764
     17          1           0        0.115225   -2.755100   -1.945205
     18          6           0        2.942980   -0.959155   -1.290878
     19          1           0        2.647919    0.048664   -1.597989
     20          6           0        4.398110   -1.145069   -0.989073
     21          1           0        4.675869   -0.619667   -0.066311
     22          1           0        4.641312   -2.208786   -0.863842
     23          1           0        5.013221   -0.734281   -1.803782
     24          6           0        0.107152   -0.637837   -1.662825
     25          1           0        0.686409    0.273940   -1.831226
     26          6           0       -1.383777   -0.464797   -1.796481
     27          1           0       -1.742356   -0.920176   -2.733156
     28          1           0       -1.634898    0.602183   -1.802415
     29          6           0       -3.143682   -0.681000   -0.157036
     30          6           0       -3.916775    0.402886   -0.846116
     31          1           0       -4.147405    0.095976   -1.876178
     32          1           0       -4.838865    0.569184   -0.281180
     33          1           0       -3.325413    1.326652   -0.900020
     34          8           0       -2.019159   -1.128635   -0.700562
     35          8           0       -3.512390   -1.212945    0.872942
     36          1           0        4.478117    0.308924    1.888539
     37          1           0       -2.356193    3.701815   -1.604332
     38          1           0       -2.107513   -2.361136    1.479468
     39          1           0       -5.158255   -0.557109    1.556437
     40          8           0       -1.344551   -2.850506    1.833267
     41          1           0       -1.164066   -2.400035    2.667076
     42          8           0       -5.966227   -0.046585    1.734644
     43          1           0       -5.628353    0.743322    2.173416
     44          8           0       -1.716894    2.981191   -1.652533
     45          1           0       -1.587838    2.704633   -0.730583
     46          8           0        4.715724   -0.504078    2.364703
     47          1           0        5.651984   -0.623638    2.167391
 ---------------------------------------------------------------------

 SCF Done:  E(RM062X) =  -1165.60741009     A.U. after   14 cycles

 The electronic state is 1-A.
 Alpha  occ. eigenvalues --  -19.69058 -19.64689 -19.64487 -19.64290 -19.62405
 Alpha  occ. eigenvalues --  -19.61360 -19.60958 -19.60834 -14.81486 -10.70935
 Alpha  occ. eigenvalues --  -10.69043 -10.68908 -10.62573 -10.59557 -10.59063
 Alpha  occ. eigenvalues --  -10.59028 -10.58321 -10.58103 -10.57063 -10.56467
 Alpha  occ. eigenvalues --  -10.56364 -10.55225  -1.23954  -1.19765  -1.17779
 Alpha  occ. eigenvalues --   -1.14596  -1.10137  -1.09254  -1.08864  -1.08755
 Alpha  occ. eigenvalues --   -1.07119  -0.94205  -0.90985  -0.88400  -0.84421
 Alpha  occ. eigenvalues --   -0.82494  -0.79474  -0.76913  -0.74826  -0.69982
 Alpha  occ. eigenvalues --   -0.69821  -0.66164  -0.63145  -0.61778  -0.61060
 Alpha  occ. eigenvalues --   -0.60274  -0.59588  -0.59173  -0.58791  -0.57861
 Alpha  occ. eigenvalues --   -0.57753  -0.57012  -0.56921  -0.54997  -0.54801
 Alpha  occ. eigenvalues --   -0.52984  -0.52439  -0.51224  -0.50633  -0.50442
 Alpha  occ. eigenvalues --   -0.49593  -0.48501  -0.48375  -0.47699  -0.47211
 Alpha  occ. eigenvalues --   -0.46990  -0.46395  -0.46054  -0.45652  -0.45437
 Alpha  occ. eigenvalues --   -0.45052  -0.44806  -0.43622  -0.42503  -0.41862
 Alpha  occ. eigenvalues --   -0.41670  -0.38716  -0.38482  -0.38115  -0.37840
 Alpha  occ. eigenvalues --   -0.37658  -0.37424  -0.37021  -0.35356  -0.34940
 Alpha  occ. eigenvalues --   -0.30389  -0.29192
 Alpha virt. eigenvalues --   -0.04801  -0.01706   0.04059   0.07182   0.08188
 Alpha virt. eigenvalues --    0.08859   0.10116   0.10340   0.11351   0.11802
 Alpha virt. eigenvalues --    0.12706   0.12778   0.13512   0.14182   0.14530

 Mulliken charges:
               1
     1  C    0.298687
     2  C   -0.130374
     3  C   -0.089403
     4  C    0.286230
     5  H    0.063085
     6  H    0.009781
     7  C    0.063372
     8  H    0.080675
     9  H    0.076839
    10  H    0.063819
    11  N   -0.367746
    12  O   -0.300071
    13  O   -0.294299
    14  C   -0.035686
    15  H    0.046060
    16  C   -0.007864
    17  H    0.050141
    18  C   -0.126271
    19  H    0.072086
    20  C    0.034511
    21  H   -0.005918
    22  H    0.054170
    23  H    0.070215
    24  C   -0.136415
    25  H    0.065569
    26  C    0.235892
    27  H    0.088872
    28  H    0.040485
    29  C    0.239408
    30  C   -0.068609
    31  H    0.097703
    32  H    0.045401
    33  H    0.055094
    34  O   -0.333113
    35  O   -0.350092
    36  H    0.191583
    37  H    0.197574
    38  H    0.181129
    39  H    0.186548
    40  O   -0.353437
    41  H    0.190472
    42  O   -0.375249
    43  H    0.186991
    44  O   -0.334557
    45  H    0.200492
    46  O   -0.358479
    47  H    0.194703
 Sum of Mulliken charges =   0.00000

 Dipole moment (field-independent basis, Debye):
    X=              3.6296    Y=              5.2070    Z=             -4.7799  Tot=              7.9457
 Quadrupole moment (field-independent basis, Debye-Ang):
   XX=           -150.1327   YY=           -128.7797   ZZ=           -133.1386
   XY=            -18.5543   XZ=              4.4076   YZ=             10.4915

  Exact polarizability: 300.900 -15.100 234.765   4.393  26.642 212.329
 Approx polarizability: 276.761  -8.915 216.534   3.674  23.975 210.248

 ******    1 imaginary frequencies (negative Signs) ******

                      1                      2                      3
                      A                      A                      A
 Frequencies --   -446.9476                23.5730                31.7730
 Red. masses --      8.6136                 5.8542                 4.7337
 Frc consts  --      1.0138                 0.0019                 0.0028
 IR Inten    --     15.7900                 0.3689                 1.6795

                      4                      5                      6
                      A                      A                      A
 Frequencies --     40.8202                47.4300                56.4752
 Red. masses --      5.8854                 6.0516                 5.2253
 Frc consts  --      0.0058                 0.0080                 0.0098
 IR Inten    --      0.9986                 1.0326                 7.6718

                      7                      8                      9
                      A                      A                      A
 Frequencies --     67.3595                68.0167                76.7380
 Red. masses --      4.0318                 4.1899                 4.3286
 Frc consts  --      0.0108                 0.0114                 0.0150
 IR Inten    --      0.1581                 1.5199                 0.6224

                     10                     11                     12
                      A                      A                      A
 Frequencies --     84.9704                92.2233               104.8513
 Red. masses --      4.9290                 4.8254                 6.3170
 Frc consts  --      0.0210                 0.0242                 0.0409
 IR Inten    --      1.3483                19.5906                 3.8583

                     13                     14                     15
                      A                      A                      A
 Frequencies --    107.0225               117.9091               122.9310
 Red. masses --      3.3784                 3.6955                 2.3061
 Frc consts  --      0.0228                 0.0303                 0.0205
 IR Inten    --      2.5560                11.7508                10.0239

                     16                     17                     18
                      A                      A                      A
 Frequencies --    135.0022               146.1463               155.6400
 Red. masses --      4.2729                 1.3928                 6.7371
 Frc consts  --      0.0459                 0.0175                 0.0962
 IR Inten    --      2.9889                 0.7606                 8.8658

                     19                     20                     21
                      A                      A                      A
 Frequencies --    159.3493               162.4972               176.4870
 Red. masses --      5.8204                 5.2035                 4.1936
 Frc consts  --      0.0871                 0.0810                 0.0770
 IR Inten    --     11.1566                 5.5727                 2.1956

                     22                     23                     24
                      A                      A                      A
 Frequencies --    179.1614               187.7982               199.1734
 Red. masses --      3.6198                 4.1122                 4.6989
 Frc consts  --      0.0685                 0.0854                 0.1098
 IR Inten    --     32.9928                38.5179                22.8498

                     25                     26                     27
                      A                      A                      A
 Frequencies --    212.2636               215.4447               226.9604
 Red. masses --      2.5444                 1.5735                 2.3244
 Frc consts  --      0.0675                 0.0430                 0.0705
 IR Inten    --     54.6713               102.9544                18.8065

                     28                     29                     30
                      A                      A                      A
 Frequencies --    233.7903               259.7527               268.3355
 Red. masses --      2.0521                 1.1675                 1.9222
 Frc consts  --      0.0661                 0.0464                 0.0815
 IR Inten    --      7.7730               127.9470                54.1927

                     31                     32                     33
                      A                      A                      A
 Frequencies --    280.7627               288.9813               299.6271
 Red. masses --      2.4927                 1.2816                 1.6250
 Frc consts  --      0.1158                 0.0631                 0.0860
 IR Inten    --     58.0822                80.2332                34.6535

                     34                     35                     36
                      A                      A                      A
 Frequencies --    303.2353               313.6012               316.4557
 Red. masses --      2.1391                 1.4889                 1.0851
 Frc consts  --      0.1159                 0.0863                 0.0640
 IR Inten    --     69.9258                60.1332               167.0553

                     37                     38                     39
                      A                      A                      A
 Frequencies --    342.3512               363.3474               366.4540
 Red. masses --      2.1930                 2.4838                 1.0884
 Frc consts  --      0.1514                 0.1932                 0.0861
 IR Inten    --      7.6903                55.1170                95.4071

                     40                     41                     42
                      A                      A                      A
 Frequencies --    380.0626               383.5705               418.6221
 Red. masses --      1.1703                 1.0669                 7.6464
 Frc consts  --      0.0996                 0.0925                 0.7895
 IR Inten    --    295.4331               115.0427                44.9390

                     43                     44                     45
                      A                      A                      A
 Frequencies --    441.1405               474.6765               494.8303
 Red. masses --      3.5101                 2.9546                 3.2613
 Frc consts  --      0.4025                 0.3922                 0.4705
 IR Inten    --     29.2636                 4.1372                 5.9873

                     46                     47                     48
                      A                      A                      A
 Frequencies --    556.4692               580.5973               602.8995
 Red. masses --      3.7004                 1.8105                 1.6092
 Frc consts  --      0.6751                 0.3596                 0.3446
 IR Inten    --     12.3525                70.7952                56.4088

                     49                     50                     51
                      A                      A                      A
 Frequencies --    606.8306               623.4169               627.4967
 Red. masses --      1.4519                 1.1641                 3.5197
 Frc consts  --      0.3150                 0.2666                 0.8165
 IR Inten    --    142.8496               387.0479                14.8828

                     52                     53                     54
                      A                      A                      A
 Frequencies --    641.3451               646.6270               652.1888
 Red. masses --      2.3899                 2.0971                 1.1460
 Frc consts  --      0.5792                 0.5166                 0.2872
 IR Inten    --    125.0984               186.2568               226.6608

                     55                     56                     57
                      A                      A                      A
 Frequencies --    702.6616               725.3352               751.0011
 Red. masses --      3.3733                 6.6804                 4.0504
 Frc consts  --      0.9813                 2.0707                 1.3460
 IR Inten    --      3.0616                68.0348                26.5961

                     58                     59                     60
                      A                      A                      A
 Frequencies --    778.6516               784.5960               803.0663
 Red. masses --      7.3473                 3.6276                 1.7030
 Frc consts  --      2.6246                 1.3157                 0.6471
 IR Inten    --      4.3752                 6.2832                38.4904

                     61                     62                     63
                      A                      A                      A
 Frequencies --    853.2676               878.6713               926.7771
 Red. masses --      1.6132                 2.2769                 1.5645
 Frc consts  --      0.6920                 1.0357                 0.7917
 IR Inten    --      7.2070                 6.8116                 6.4133

                     64                     65                     66
                      A                      A                      A
 Frequencies --    937.6853               968.6080               984.7681
 Red. masses --      1.6679                 1.5665                 1.2554
 Frc consts  --      0.8641                 0.8659                 0.7173
 IR Inten    --      8.4519                34.0839               142.9283

                     67                     68                     69
                      A                      A                      A
 Frequencies --    986.7269              1016.6191              1028.4238
 Red. masses --      1.7425                 1.1638                 1.2483
 Frc consts  --      0.9996                 0.7087                 0.7779
 IR Inten    --     72.8661                23.5581                10.2365

                     70                     71                     72
                      A                      A                      A
 Frequencies --   1044.8286              1053.3700              1062.7088
 Red. masses --      1.6460                 1.5767                 1.7371
 Frc consts  --      1.0587                 1.0307                 1.1558
 IR Inten    --     23.5555                28.5848                17.4330

                     73                     74                     75
                      A                      A                      A
 Frequencies --   1072.5037              1076.5820              1119.7329
 Red. masses --      1.4944                 1.4067                 2.1148
 Frc consts  --      1.0128                 0.9606                 1.5622
 IR Inten    --      4.4074                12.9654                24.1385

                     76                     77                     78
                      A                      A                      A
 Frequencies --   1139.5441              1150.6172              1159.4703
 Red. masses --      2.0791                 1.3804                 3.3025
 Frc consts  --      1.5907                 1.0768                 2.6158
 IR Inten    --     51.6485                 8.8044                53.8303

                     79                     80                     81
                      A                      A                      A
 Frequencies --   1177.5748              1185.3630              1251.4567
 Red. masses --      4.0448                 1.9795                 1.2735
 Frc consts  --      3.3046                 1.6387                 1.1751
 IR Inten    --     98.6449                22.9604                56.0457

                     82                     83                     84
                      A                      A                      A
 Frequencies --   1269.0272              1294.1483              1304.9708
 Red. masses --      1.3183                 1.3541                 3.1584
 Frc consts  --      1.2509                 1.3361                 3.1690
 IR Inten    --     39.2171               175.2260                72.8425

                     85                     86                     87
                      A                      A                      A
 Frequencies --   1316.9248              1335.8802              1346.9251
 Red. masses --      1.3703                 1.8522                 1.4353
 Frc consts  --      1.4002                 1.9475                 1.5342
 IR Inten    --     10.6751                35.8289               174.9902

                     88                     89                     90
                      A                      A                      A
 Frequencies --   1375.8752              1401.3316              1417.3112
 Red. masses --      1.9703                 1.3725                 2.1578
 Frc consts  --      2.1975                 1.5879                 2.5538
 IR Inten    --     21.0785                10.3356               422.4596

                     91                     92                     93
                      A                      A                      A
 Frequencies --   1422.7896              1439.2500              1445.2845
 Red. masses --      1.4101                 1.2236                 1.0578
 Frc consts  --      1.6818                 1.4933                 1.3019
 IR Inten    --    184.4101                46.0650                29.9871

                     94                     95                     96
                      A                      A                      A
 Frequencies --   1452.7710              1456.1067              1459.6529
 Red. masses --      1.1403                 1.1526                 1.0426
 Frc consts  --      1.4180                 1.4399                 1.3088
 IR Inten    --      9.4693                24.7176                22.0277

                     97                     98                     99
                      A                      A                      A
 Frequencies --   1475.1433              1482.2744              1486.1330
 Red. masses --      1.1141                 1.4275                 2.6957
 Frc consts  --      1.4284                 1.8479                 3.5078
 IR Inten    --     25.6883               220.8756                14.0870

                    100                    101                    102
                      A                      A                      A
 Frequencies --   1499.7426              1507.5168              1609.7994
 Red. masses --      1.1205                 2.9236                 1.0978
 Frc consts  --      1.4849                 3.9147                 1.6762
 IR Inten    --      4.5608               431.3894               333.7961

                    103                    104                    105
                      A                      A                      A
 Frequencies --   1631.0390              1637.0818              1637.8428
 Red. masses --      1.1220                 1.3523                 2.3363
 Frc consts  --      1.7586                 2.1353                 3.6926
 IR Inten    --    102.8783                61.1774               115.5124

                    106                    107                    108
                      A                      A                      A
 Frequencies --   1644.4377              1650.6549              1795.2502
 Red. masses --      4.3270                 1.0773                10.1016
 Frc consts  --      6.8940                 1.7294                19.1818
 IR Inten    --      5.8309               104.5990              1729.2559

                    109                    110                    111
                      A                      A                      A
 Frequencies --   1814.9892              1873.6438              3060.6989
 Red. masses --     10.6741                11.2850                 1.0395
 Frc consts  --     20.7171                23.3413                 5.7372
 IR Inten    --    669.1260               230.2165                23.8132

                    112                    113                    114
                      A                      A                      A
 Frequencies --   3074.4722              3077.5316              3087.2181
 Red. masses --      1.0339                 1.0380                 1.0671
 Frc consts  --      5.7581                 5.7923                 5.9925
 IR Inten    --     37.8154                 3.3059                19.1424

                    115                    116                    117
                      A                      A                      A
 Frequencies --   3148.4391              3170.4544              3172.0792
 Red. masses --      1.1023                 1.1079                 1.0944
 Frc consts  --      6.4380                 6.5616                 6.4883
 IR Inten    --      6.8215                 6.7265                 1.1331

                    118                    119                    120
                      A                      A                      A
 Frequencies --   3173.8844              3175.6299              3178.4942
 Red. masses --      1.1001                 1.0916                 1.0873
 Frc consts  --      6.5292                 6.4859                 6.4718
 IR Inten    --      5.1422                 3.7862                13.6036

                    121                    122                    123
                      A                      A                      A
 Frequencies --   3181.2896              3190.7558              3191.6244
 Red. masses --      1.0980                 1.0962                 1.0991
 Frc consts  --      6.5475                 6.5755                 6.5963
 IR Inten    --     13.7097                16.8154                 1.0769

                    124                    125                    126
                      A                      A                      A
 Frequencies --   3202.4405              3214.2467              3244.0428
 Red. masses --      1.1068                 1.1074                 1.0968
 Frc consts  --      6.6879                 6.7408                 6.8009
 IR Inten    --      0.4450                17.9578                85.3741

                    127                    128                    129
                      A                      A                      A
 Frequencies --   3265.2474              3722.2875              3742.4443
 Red. masses --      1.0999                 1.0581                 1.0577
 Frc consts  --      6.9092                 8.6379                 8.7282
 IR Inten    --     29.0986               725.7634               299.7940

                    130                    131                    132
                      A                      A                      A
 Frequencies --   3747.9765              3751.9512              3910.9357
 Red. masses --      1.0573                 1.0564                 1.0700
 Frc consts  --      8.7503                 8.7618                 9.6426
 IR Inten    --    637.6799               181.3566               104.8415

                    133                    134                    135
                      A                      A                      A
 Frequencies --   3914.9217              3921.7311              3922.2607
 Red. masses --      1.0704                 1.0725                 1.0716
 Frc consts  --      9.6659                 9.7185                 9.7131
 IR Inten    --    119.6251               292.0887                97.3342

 - Thermochemistry -
 -------------------
 Temperature   298.150 Kelvin.  Pressure   1.00000 Atm.
 Atom     1 has atomic number  6 and mass  12.00000

 Molecular mass:   323.15802 amu.
 Principal axes and moments of inertia in atomic units:
                           1         2         3
     Eigenvalues --  4881.79273********************
           X            0.99986  -0.01651   0.00016
           Y            0.01651   0.99977  -0.01338
           Z            0.00006   0.01338   0.99991
 This molecule is an asymmetric top.
 Rotational symmetry number  1.
 Warning -- assumption of classical behavior for rotation
           may cause significant error
 Rotational temperatures (Kelvin)      0.01774     0.00765     0.00702
 Rotational constants (GHZ):           0.36969     0.15943     0.14626
    1 imaginary frequencies ignored.
 Zero-point vibrational energy    1013912.6 (Joules/Mol)
                                  242.33093 (Kcal/Mol)
 Warning -- explicit consideration of  48 degrees of freedom as
           vibrations may cause significant error
 Vibrational temperatures:     33.92    45.71    58.73    68.24    81.26
          (Kelvin)             96.92    97.86   110.41   122.25   132.69
                              150.86   153.98   169.64   176.87   194.24
                              210.27   223.93   229.27   233.80   253.93
                              257.77   270.20   286.57   305.40   309.98
                              326.54   336.37   373.73   386.07   403.95
                              415.78   431.10   436.29   451.20   455.31
                              492.57   522.78   527.24   546.82   551.87
                              602.30   634.70   682.95   711.95   800.63
                              835.35   867.44   873.09   896.96   902.83
                              922.75   930.35   938.35  1010.97  1043.59
                             1080.52  1120.30  1128.86  1155.43  1227.66
                             1264.21  1333.42  1349.12  1393.61  1416.86
                             1419.68  1462.69  1479.67  1503.27  1515.56
                             1529.00  1543.09  1548.96  1611.04  1639.55
                             1655.48  1668.22  1694.27  1705.47  1800.56
                             1825.84  1861.99  1877.56  1894.76  1922.03
                             1937.92  1979.58  2016.20  2039.19  2047.07
                             2070.76  2079.44  2090.21  2095.01  2100.11
                             2122.40  2132.66  2138.21  2157.79  2168.98
                             2316.14  2346.70  2355.39  2356.49  2365.98
                             2374.92  2582.96  2611.36  2695.75  4403.66
                             4423.47  4427.88  4441.81  4529.90  4561.57
                             4563.91  4566.51  4569.02  4573.14  4577.16
                             4590.78  4592.03  4607.59  4624.58  4667.45
                             4697.96  5355.53  5384.54  5392.50  5398.21
                             5626.96  5632.69  5642.49  5643.25

 Zero-point correction=                           0.386179 (Hartree/Particle)
 Thermal correction to Energy=                    0.416650
 Thermal correction to Enthalpy=                  0.417595
 Thermal correction to Gibbs Free Energy=         0.324722
 Sum of electronic and zero-point Energies=          -1165.221231
 Sum of electronic and thermal Energies=             -1165.190760
 Sum of electronic and thermal Enthalpies=           -1165.189815
 Sum of electronic and thermal Free Energies=        -1165.282688

                     E (Thermal)             CV                S
                      KCal/Mol        Cal/Mol-Kelvin    Cal/Mol-Kelvin
 Total                  261.452            107.083            195.467
 Electronic               0.000              0.000              0.000
 Translational            0.889              2.981             43.214
 Rotational               0.889              2.981             34.877
 Vibrational            259.675            101.121            117.376
 Vibration     1          0.593              1.985              6.308
 Vibration     2          0.594              1.983              5.716
 Vibration     3          0.594              1.981              5.219
 Vibration     4          0.595              1.979              4.922
 Vibration     5          0.596              1.975              4.577
 Vibration     6          0.598              1.970              4.229
 Vibration     7          0.598              1.969              4.210
 Vibration     8          0.599              1.965              3.973
 Vibration     9          0.601              1.960              3.773
 Vibration    10          0.602              1.955              3.612
 Vibration    11          0.605              1.945              3.362
 Vibration    12          0.606              1.944              3.322
 Vibration    13          0.608              1.934              3.134
 Vibration    14          0.610              1.930              3.054
 Vibration    15          0.613              1.918              2.874
 Vibration    16          0.617              1.907              2.722
 Vibration    17          0.620              1.896              2.602
 Vibration    18          0.621              1.892              2.558
 Vibration    19          0.623              1.888              2.521
 Vibration    20          0.628              1.871              2.365
 Vibration    21          0.629              1.868              2.337
 Vibration    22          0.632              1.857              2.249
 Vibration    23          0.637              1.841              2.141
 Vibration    24          0.643              1.822              2.024
 Vibration    25          0.645              1.817              1.997
 Vibration    26          0.651              1.800              1.903
 Vibration    27          0.654              1.789              1.850
 Vibration    28          0.668              1.746              1.663
 Vibration    29          0.673              1.731              1.607
 Vibration    30          0.680              1.709              1.529
 Vibration    31          0.686              1.694              1.480
 Vibration    32          0.692              1.674              1.419
 Vibration    33          0.695              1.668              1.399
 Vibration    34          0.701              1.648              1.343
 Vibration    35          0.703              1.642              1.328
 Vibration    36          0.721              1.591              1.201
 Vibration    37          0.737              1.548              1.108
 Vibration    38          0.739              1.541              1.095
 Vibration    39          0.750              1.513              1.039
 Vibration    40          0.753              1.505              1.025
 Vibration    41          0.781              1.430              0.897
 Vibration    42          0.801              1.380              0.823
 Vibration    43          0.831              1.306              0.725
 Vibration    44          0.850              1.261              0.671
 Vibration    45          0.912              1.126              0.531
 Vibration    46          0.937              1.073              0.484
 Vibration    47          0.961              1.026              0.445
 Vibration    48          0.966              1.017              0.438

 1\1\GINC-D10S2B1\Freq\RM062X\def2SVP\C13H25N1O8\CHMKSH\07-Sep-2020\0\\
 # freq scrf=(cpcm,solvent=water) geom=connectivity def2svp empiricaldi
 spersion=gd3 m062x\\Title Card Required\\0,1\C,2.365497,1.053408,0.676
 105\C,1.946506,-0.377209,0.686917\C,0.565883,-0.403088,0.537752\C,0.09
 5647,1.006735,0.503435\H,2.57581,-1.116836,1.17622\H,-0.107438,-1.2045
 96,0.838506\C,1.182467,3.25695,0.346719\H,0.794772,3.702094,1.2736\H,2
 .205665,3.608772,0.175618\H,0.540006,3.548944,-0.493801\N,1.221269,1.8
 13011,0.44358\O,-1.046066,1.424691,0.511646\O,3.471004,1.527967,0.8348

 Normal termination of Gaussian 09 at Mon Sep  7 00:42:01 2020.
