 Gaussian 09, Revision D.01,
 Gaussian 09:  ES64L-G09RevD.01 24-Apr-2013

 ----------------------------------------------------------------------
 # opt freq scrf=(cpcm,solvent=water) geom=connectivity def2svp m062x e
 mpiricaldispersion=gd3
 ----------------------------------------------------------------------

 -------------------
 Title Card Required
 -------------------
 Symbolic Z-matrix:
 Charge =  0 Multiplicity = 1

 SCF Done:  E(RM062X) =  -550.978377209     A.U. after   13 cycles
 SCF Done:  E(RM062X) =  -550.978377203     A.U. after    7 cycles
 SCF Done:  E(RM062X) =  -550.978377251     A.U. after    8 cycles
 Optimization completed.
    -- Stationary point found.
 Normal termination of Gaussian 09 at Sun Sep  6 03:26:52 2020.

 -------------------------------------------------------------------
 #N Geom=AllCheck Guess=TCheck SCRF=Check GenChk RM062X/def2SVP Freq
 -------------------------------------------------------------------

 Structure from the checkpoint file:  "m062x_PM6_2H2O_dienophile_pm6_cpcmtoluene_1_water_gd3.chk"
 -------------------
 Title Card Required
 -------------------
 Charge =  0 Multiplicity = 1

                         Standard orientation:
 ---------------------------------------------------------------------
 Center     Atomic      Atomic             Coordinates (Angstroms)
 Number     Number       Type             X           Y           Z
 ---------------------------------------------------------------------
      1          6           0        1.134816    0.351150   -0.043797
      2          6           0        0.661896   -1.075557   -0.118107
      3          6           0       -0.671639   -1.069616   -0.115871
      4          6           0       -1.134937    0.360508   -0.039607
      5          1           0        1.372311   -1.899092   -0.164573
      6          1           0       -1.389760   -1.886626   -0.160570
      7          6           0        0.022631    2.593081    0.072228
      8          1           0       -1.012686    2.931997    0.187543
      9          1           0        0.616022    2.918459    0.935885
     10          1           0        0.448656    3.022304   -0.843999
     11          7           0        0.004283    1.147955   -0.001974
     12          8           0       -2.269281    0.774967   -0.015833
     13          8           0        2.269921    0.764722   -0.024166
     14          8           0       -3.760541   -1.687848    0.000986
     15          1           0       -3.760432   -1.850997    0.952066
     16          1           0       -3.476977   -0.761541   -0.059996
     17          8           0        3.745786   -1.705288    0.006615
     18          1           0        3.467525   -0.777766   -0.061159
     19          1           0        3.741682   -1.862249    0.958726
 ---------------------------------------------------------------------

 SCF Done:  E(RM062X) =  -550.978377251     A.U. after    1 cycles

 The electronic state is 1-A.
 Alpha  occ. eigenvalues --  -19.65663 -19.65624 -19.61338 -19.61323 -14.81839
 Alpha  occ. eigenvalues --  -10.69750 -10.69619 -10.59877 -10.59362 -10.59262
 Alpha  occ. eigenvalues --   -1.20744  -1.18870  -1.09339  -1.09269  -1.08005
 Alpha  occ. eigenvalues --   -0.93183  -0.80451  -0.77015  -0.70515  -0.64112
 Alpha  occ. eigenvalues --   -0.59771  -0.58656  -0.58471  -0.58323  -0.55851
 Alpha  occ. eigenvalues --   -0.53470  -0.52812  -0.50981  -0.49635  -0.49067
 Alpha  occ. eigenvalues --   -0.47316  -0.45492  -0.45381  -0.39266  -0.38360
 Alpha  occ. eigenvalues --   -0.37885  -0.37464  -0.35797  -0.34451
 Alpha virt. eigenvalues --   -0.06651   0.09416   0.10150   0.10939   0.11702
 Alpha virt. eigenvalues --    0.11832   0.15676   0.16727   0.18667   0.19262
 Alpha virt. eigenvalues --    0.20295   0.21159   0.21961   0.24552   0.28455

 Mulliken charges:
               1
     1  C    0.297302
     2  C   -0.045056
     3  C   -0.056602
     4  C    0.305429
     5  H    0.055843
     6  H    0.055886
     7  C    0.067130
     8  H    0.078868
     9  H    0.081256
    10  H    0.083454
    11  N   -0.390772
    12  O   -0.269466
    13  O   -0.271862
    14  O   -0.371429
    15  H    0.189715
    16  H    0.186282
    17  O   -0.371750
    18  H    0.186194
    19  H    0.189578
 Sum of Mulliken charges =   0.00000

 Dipole moment (field-independent basis, Debye):
    X=             -0.0368    Y=              1.9030    Z=              3.2489  Tot=              3.7654
 Quadrupole moment (field-independent basis, Debye-Ang):
   XX=            -83.2055   YY=            -56.7270   ZZ=            -54.6560
   XY=              0.0304   XZ=             -0.0449   YZ=             -6.2409

  Exact polarizability: 128.617   0.680  87.655  -0.083  -0.419  53.764
 Approx polarizability: 129.419   0.534  77.924  -0.090  -0.478  54.756

                      1                      2                      3
                      A                      A                      A
 Frequencies --     38.9109                42.4709                84.3609
 Red. masses --      4.8345                 7.9427                 7.3620
 Frc consts  --      0.0043                 0.0084                 0.0309
 IR Inten    --      2.8249                 0.3448                 0.0285

                      4                      5                      6
                      A                      A                      A
 Frequencies --     96.6656               129.5383               142.5523
 Red. masses --      1.0580                 6.6400                 4.3888
 Frc consts  --      0.0058                 0.0656                 0.0525
 IR Inten    --      0.4276                39.3641                11.0698

                      7                      8                      9
                      A                      A                      A
 Frequencies --    150.9184               154.2836               195.3683
 Red. masses --      6.1843                 5.3974                 3.6399
 Frc consts  --      0.0830                 0.0757                 0.0819
 IR Inten    --      4.2695                 0.1557                14.6774

                     10                     11                     12
                      A                      A                      A
 Frequencies --    239.1031               250.8040               283.5220
 Red. masses --      1.1316                 1.1558                 2.2948
 Frc consts  --      0.0381                 0.0428                 0.1087
 IR Inten    --     63.7244               180.7425               136.1090

                     13                     14                     15
                      A                      A                      A
 Frequencies --    290.2478               298.1248               313.6537
 Red. masses --      1.7123                 1.0891                 2.0550
 Frc consts  --      0.0850                 0.0570                 0.1191
 IR Inten    --     41.6900                37.2712               107.7465

                     16                     17                     18
                      A                      A                      A
 Frequencies --    414.8882               583.3513               597.2793
 Red. masses --      8.3511                 1.5568                 1.3635
 Frc consts  --      0.8469                 0.3121                 0.2866
 IR Inten    --     49.4413               464.4479                 1.2484

                     19                     20                     21
                      A                      A                      A
 Frequencies --    604.3461               633.1668               661.9898
 Red. masses --      1.7319                 3.1860                 2.3695
 Frc consts  --      0.3727                 0.7525                 0.6118
 IR Inten    --    401.2512                 3.2772                 1.9303

                     22                     23                     24
                      A                      A                      A
 Frequencies --    713.8180               764.3681               776.3420
 Red. masses --      6.5792                 5.1911                 8.4099
 Frc consts  --      1.9751                 1.7869                 2.9864
 IR Inten    --     27.8144                 0.9733                 0.1267

                     25                     26                     27
                      A                      A                      A
 Frequencies --    878.6181               976.5780              1033.7616
 Red. masses --      1.8408                 1.9274                 1.2641
 Frc consts  --      0.8372                 1.0830                 0.7959
 IR Inten    --     99.5589                39.5220                 0.3478

                     28                     29                     30
                      A                      A                      A
 Frequencies --   1048.8129              1137.8859              1145.6049
 Red. masses --      1.2784                 2.1494                 1.3152
 Frc consts  --      0.8285                 1.6397                 1.0170
 IR Inten    --     13.9320                52.8201                 1.2605

                     31                     32                     33
                      A                      A                      A
 Frequencies --   1172.4947              1313.1891              1317.9553
 Red. masses --      3.6921                 2.3262                 2.8668
 Frc consts  --      2.9905                 2.3635                 2.9339
 IR Inten    --     10.8182               104.6912                21.5107

                     34                     35                     36
                      A                      A                      A
 Frequencies --   1419.8134              1456.9354              1476.8316
 Red. masses --      1.2984                 1.0445                 1.1584
 Frc consts  --      1.5422                 1.3062                 1.4886
 IR Inten    --     29.1241                23.2018                94.5972

                     37                     38                     39
                      A                      A                      A
 Frequencies --   1517.5002              1632.7175              1633.3214
 Red. masses --      4.5272                 1.0783                 1.0780
 Frc consts  --      6.1423                 1.6936                 1.6944
 IR Inten    --    350.3080                74.7537               136.3514

                     40                     41                     42
                      A                      A                      A
 Frequencies --   1693.4789              1827.8028              1915.7374
 Red. masses --      6.8149                12.1780                11.8698
 Frc consts  --     11.5151                23.9710                25.6664
 IR Inten    --      6.8744              1688.8113                 6.6415

                     43                     44                     45
                      A                      A                      A
 Frequencies --   3082.2658              3179.7810              3204.4558
 Red. masses --      1.0334                 1.1083                 1.1069
 Frc consts  --      5.7842                 6.6024                 6.6969
 IR Inten    --     28.0677                 7.9443                 0.1680

                     46                     47                     48
                      A                      A                      A
 Frequencies --   3258.1882              3276.6149              3770.0042
 Red. masses --      1.0926                 1.1141                 1.0560
 Frc consts  --      6.8336                 7.0476                 8.8432
 IR Inten    --     40.2697                20.8736               324.0472

                     49                     50                     51
                      A                      A                      A
 Frequencies --   3773.0622              3914.6318              3914.9632
 Red. masses --      1.0557                 1.0719                 1.0720
 Frc consts  --      8.8547                 9.6779                 9.6807
 IR Inten    --    404.7695                45.7088               206.3304

 - Thermochemistry -
 -------------------
 Temperature   298.150 Kelvin.  Pressure   1.00000 Atm.
 Atom     1 has atomic number  6 and mass  12.00000

 Molecular mass:   147.05316 amu.
 Principal axes and moments of inertia in atomic units:
                           1         2         3
     Eigenvalues --  1023.514702567.819663563.13522
           X            1.00000   0.00033   0.00000
           Y           -0.00033   0.99997  -0.00735
           Z            0.00000   0.00735   0.99997
 This molecule is an asymmetric top.
 Rotational symmetry number  1.
 Warning -- assumption of classical behavior for rotation
           may cause significant error
 Rotational temperatures (Kelvin)      0.08462     0.03373     0.02431
 Rotational constants (GHZ):           1.76328     0.70283     0.50650
 Zero-point vibrational energy     385395.4 (Joules/Mol)
                                   92.11171 (Kcal/Mol)
 Warning -- explicit consideration of  19 degrees of freedom as
           vibrations may cause significant error
 Vibrational temperatures:     55.98    61.11   121.38   139.08   186.38
          (Kelvin)            205.10   217.14   221.98   281.09   344.02
                              360.85   407.92   417.60   428.93   451.28
                              596.93   839.31   859.35   869.52   910.98
                              952.45  1027.02  1099.75  1116.98  1264.13
                             1405.08  1487.35  1509.01  1637.16  1648.27
                             1686.96  1889.38  1896.24  2042.79  2096.20
                             2124.83  2183.34  2349.11  2349.98  2436.54
                             2629.80  2756.32  4434.69  4574.99  4610.49
                             4687.80  4714.31  5424.19  5428.59  5632.28
                             5632.75

 Zero-point correction=                           0.146789 (Hartree/Particle)
 Thermal correction to Energy=                    0.160319
 Thermal correction to Enthalpy=                  0.161263
 Thermal correction to Gibbs Free Energy=         0.106054
 Sum of electronic and zero-point Energies=           -550.831588
 Sum of electronic and thermal Energies=              -550.818058
 Sum of electronic and thermal Enthalpies=            -550.817114
 Sum of electronic and thermal Free Energies=         -550.872324

                     E (Thermal)             CV                S
                      KCal/Mol        Cal/Mol-Kelvin    Cal/Mol-Kelvin
 Total                  100.602             45.322            116.198
 Electronic               0.000              0.000              0.000
 Translational            0.889              2.981             40.868
 Rotational               0.889              2.981             30.616
 Vibrational             98.824             39.360             44.714
 Vibration     1          0.594              1.981              5.314
 Vibration     2          0.595              1.980              5.140
 Vibration     3          0.601              1.960              3.787
 Vibration     4          0.603              1.952              3.520
 Vibration     5          0.612              1.924              2.953
 Vibration     6          0.616              1.911              2.769
 Vibration     7          0.618              1.902              2.661
 Vibration     8          0.620              1.898              2.619
 Vibration     9          0.636              1.846              2.176
 Vibration    10          0.657              1.781              1.810
 Vibration    11          0.663              1.761              1.725
 Vibration    12          0.682              1.704              1.512
 Vibration    13          0.686              1.692              1.473
 Vibration    14          0.691              1.677              1.427
 Vibration    15          0.702              1.648              1.343
 Vibration    16          0.778              1.438              0.910
 Vibration    17          0.940              1.067              0.479
 Vibration    18          0.955              1.038              0.454
 Vibration    19          0.963              1.023              0.442

 Normal termination of Gaussian 09 at Sun Sep  6 03:30:39 2020.
