 Gaussian 09, Revision D.01,
 Gaussian 09:  ES64L-G09RevD.01 24-Apr-2013

 ----------------------------------------------------------------------
 # opt=(calcfc,ts,noeigentest) scrf=(cpcm,solvent=water) geom=connectiv
 ity def2svp empiricaldispersion=gd3 m062x
 ----------------------------------------------------------------------

 -------------------
 Title Card Required
 -------------------
 Symbolic Z-matrix:
 Charge =  0 Multiplicity = 1

 SCF Done:  E(RM062X) =  -1165.60698609     A.U. after   14 cycles

  Exact polarizability:   0.000   0.000   0.000   0.000   0.000   0.000
 Approx polarizability: 276.107  -9.405 218.531   3.767  23.002 209.268

 SCF Done:  E(RM062X) =  -1165.60734196     A.U. after   12 cycles
 SCF Done:  E(RM062X) =  -1165.60739827     A.U. after   11 cycles
 SCF Done:  E(RM062X) =  -1165.60740530     A.U. after   11 cycles
 SCF Done:  E(RM062X) =  -1165.60655600     A.U. after   12 cycles
 SCF Done:  E(RM062X) =  -1165.60721131     A.U. after   11 cycles
 SCF Done:  E(RM062X) =  -1165.60716735     A.U. after   11 cycles
 SCF Done:  E(RM062X) =  -1165.60715313     A.U. after   12 cycles
 SCF Done:  E(RM062X) =  -1165.60733146     A.U. after   11 cycles
 SCF Done:  E(RM062X) =  -1165.60734376     A.U. after   11 cycles
 SCF Done:  E(RM062X) =  -1165.60698759     A.U. after   11 cycles
 SCF Done:  E(RM062X) =  -1165.60700665     A.U. after   11 cycles
 SCF Done:  E(RM062X) =  -1165.60688908     A.U. after   12 cycles
 SCF Done:  E(RM062X) =  -1165.60734289     A.U. after   11 cycles
 SCF Done:  E(RM062X) =  -1165.60740655     A.U. after   11 cycles
 SCF Done:  E(RM062X) =  -1165.60738548     A.U. after   10 cycles
 SCF Done:  E(RM062X) =  -1165.60740897     A.U. after   10 cycles
 SCF Done:  E(RM062X) =  -1165.60740985     A.U. after    8 cycles
 SCF Done:  E(RM062X) =  -1165.60741010     A.U. after    7 cycles
 SCF Done:  E(RM062X) =  -1165.60741009     A.U. after    6 cycles
 Optimization completed on the basis of negligible forces.
    -- Stationary point found.

                         Standard orientation:
 ---------------------------------------------------------------------
 Center     Atomic      Atomic             Coordinates (Angstroms)
 Number     Number       Type             X           Y           Z
 ---------------------------------------------------------------------
      1          6           0        2.365497    1.053408    0.676105
      2          6           0        1.946506   -0.377209    0.686917
      3          6           0        0.565883   -0.403088    0.537752
      4          6           0        0.095647    1.006735    0.503435
      5          1           0        2.575810   -1.116836    1.176220
      6          1           0       -0.107438   -1.204596    0.838506
      7          6           0        1.182467    3.256950    0.346719
      8          1           0        0.794772    3.702094    1.273600
      9          1           0        2.205665    3.608772    0.175618
     10          1           0        0.540006    3.548944   -0.493801
     11          7           0        1.221269    1.813011    0.443580
     12          8           0       -1.046066    1.424691    0.511646
     13          8           0        3.471004    1.527967    0.834836
     14          6           0        2.115312   -2.013738   -1.637169
     15          1           0        2.523072   -3.027865   -1.600364
     16          6           0        0.732815   -1.859046   -1.831764
     17          1           0        0.115225   -2.755100   -1.945205
     18          6           0        2.942980   -0.959155   -1.290878
     19          1           0        2.647919    0.048664   -1.597989
     20          6           0        4.398110   -1.145069   -0.989073
     21          1           0        4.675869   -0.619667   -0.066311
     22          1           0        4.641312   -2.208786   -0.863842
     23          1           0        5.013221   -0.734281   -1.803782
     24          6           0        0.107152   -0.637837   -1.662825
     25          1           0        0.686409    0.273940   -1.831226
     26          6           0       -1.383777   -0.464797   -1.796481
     27          1           0       -1.742356   -0.920176   -2.733156
     28          1           0       -1.634898    0.602183   -1.802415
     29          6           0       -3.143682   -0.681000   -0.157036
     30          6           0       -3.916775    0.402886   -0.846116
     31          1           0       -4.147405    0.095976   -1.876178
     32          1           0       -4.838865    0.569184   -0.281180
     33          1           0       -3.325413    1.326652   -0.900020
     34          8           0       -2.019159   -1.128635   -0.700562
     35          8           0       -3.512390   -1.212945    0.872942
     36          1           0        4.478117    0.308924    1.888539
     37          1           0       -2.356193    3.701815   -1.604332
     38          1           0       -2.107513   -2.361136    1.479468
     39          1           0       -5.158255   -0.557109    1.556437
     40          8           0       -1.344551   -2.850506    1.833267
     41          1           0       -1.164066   -2.400035    2.667076
     42          8           0       -5.966227   -0.046585    1.734644
     43          1           0       -5.628353    0.743322    2.173416
     44          8           0       -1.716894    2.981191   -1.652533
     45          1           0       -1.587838    2.704633   -0.730583
     46          8           0        4.715724   -0.504078    2.364703
     47          1           0        5.651984   -0.623638    2.167391
 ---------------------------------------------------------------------

 The electronic state is 1-A.
 Alpha  occ. eigenvalues --  -19.69058 -19.64689 -19.64487 -19.64290 -19.62405
 Alpha  occ. eigenvalues --  -19.61360 -19.60958 -19.60834 -14.81486 -10.70935
 Alpha  occ. eigenvalues --  -10.69043 -10.68908 -10.62573 -10.59557 -10.59063
 Alpha  occ. eigenvalues --  -10.59028 -10.58321 -10.58103 -10.57063 -10.56467
 Alpha  occ. eigenvalues --  -10.56364 -10.55225  -1.23954  -1.19765  -1.17779
 Alpha  occ. eigenvalues --   -1.14596  -1.10137  -1.09254  -1.08864  -1.08755
 Alpha  occ. eigenvalues --   -1.07119  -0.94205  -0.90985  -0.88400  -0.84421
 Alpha  occ. eigenvalues --   -0.82494  -0.79474  -0.76913  -0.74826  -0.69982
 Alpha  occ. eigenvalues --   -0.69821  -0.66164  -0.63145  -0.61778  -0.61060
 Alpha  occ. eigenvalues --   -0.60274  -0.59588  -0.59173  -0.58791  -0.57861
 Alpha  occ. eigenvalues --   -0.57753  -0.57012  -0.56921  -0.54997  -0.54801
 Alpha  occ. eigenvalues --   -0.52984  -0.52439  -0.51224  -0.50633  -0.50442
 Alpha  occ. eigenvalues --   -0.49593  -0.48501  -0.48375  -0.47699  -0.47211
 Alpha  occ. eigenvalues --   -0.46990  -0.46395  -0.46054  -0.45652  -0.45437
 Alpha  occ. eigenvalues --   -0.45052  -0.44806  -0.43622  -0.42503  -0.41862
 Alpha  occ. eigenvalues --   -0.41670  -0.38716  -0.38482  -0.38115  -0.37840
 Alpha  occ. eigenvalues --   -0.37658  -0.37424  -0.37021  -0.35356  -0.34940
 Alpha  occ. eigenvalues --   -0.30389  -0.29192
 Alpha virt. eigenvalues --   -0.04801  -0.01706   0.04059   0.07182   0.08188
 Alpha virt. eigenvalues --    0.08859   0.10116   0.10340   0.11351   0.11802
 Alpha virt. eigenvalues --    0.12706   0.12778   0.13512   0.14182   0.14530

 Mulliken charges:
               1
     1  C    0.298687
     2  C   -0.130375
     3  C   -0.089402
     4  C    0.286230
     5  H    0.063084
     6  H    0.009781
     7  C    0.063371
     8  H    0.080675
     9  H    0.076839
    10  H    0.063819
    11  N   -0.367747
    12  O   -0.300070
    13  O   -0.294298
    14  C   -0.035686
    15  H    0.046060
    16  C   -0.007865
    17  H    0.050141
    18  C   -0.126271
    19  H    0.072086
    20  C    0.034511
    21  H   -0.005918
    22  H    0.054170
    23  H    0.070215
    24  C   -0.136414
    25  H    0.065569
    26  C    0.235892
    27  H    0.088872
    28  H    0.040485
    29  C    0.239409
    30  C   -0.068610
    31  H    0.097703
    32  H    0.045401
    33  H    0.055094
    34  O   -0.333113
    35  O   -0.350092
    36  H    0.191583
    37  H    0.197574
    38  H    0.181129
    39  H    0.186548
    40  O   -0.353437
    41  H    0.190472
    42  O   -0.375249
    43  H    0.186991
    44  O   -0.334556
    45  H    0.200492
    46  O   -0.358479
    47  H    0.194702
 Sum of Mulliken charges =   0.00000

 Dipole moment (field-independent basis, Debye):
    X=              3.6296    Y=              5.2070    Z=             -4.7799  Tot=              7.9457
 Quadrupole moment (field-independent basis, Debye-Ang):
   XX=           -150.1326   YY=           -128.7797   ZZ=           -133.1386
   XY=            -18.5543   XZ=              4.4077   YZ=             10.4915

 Normal termination of Gaussian 09 at Sun Sep  6 22:52:15 2020.
