 Gaussian 09, Revision D.01,
 Gaussian 09:  ES64L-G09RevD.01 24-Apr-2013

 ----------------------------------------------------------------------
 # opt freq scrf=(cpcm,solvent=water) geom=connectivity def2svp m062x e
 mpiricaldispersion=gd3
 ----------------------------------------------------------------------

 -------------------
 Title Card Required
 -------------------
 Symbolic Z-matrix:
 Charge =  0 Multiplicity = 1

 SCF Done:  E(RM062X) =  -614.629399114     A.U. after   12 cycles
 SCF Done:  E(RM062X) =  -614.629399175     A.U. after    7 cycles
 SCF Done:  E(RM062X) =  -614.629399054     A.U. after    7 cycles
 SCF Done:  E(RM062X) =  -614.629399201     A.U. after    7 cycles
 SCF Done:  E(RM062X) =  -614.629399225     A.U. after    6 cycles
 Optimization completed.
    -- Stationary point found.
 Normal termination of Gaussian 09 at Sun Sep  6 03:31:20 2020.

 -------------------------------------------------------------------
 #N Geom=AllCheck Guess=TCheck SCRF=Check GenChk RM062X/def2SVP Freq
 -------------------------------------------------------------------

 Structure from the checkpoint file:  "m062x_PM6_2H2O_diene_pm6_cpcmtoluene_1_water_gd3.chk"
 -------------------
 Title Card Required
 -------------------
 Charge =  0 Multiplicity = 1

                         Standard orientation:
 ---------------------------------------------------------------------
 Center     Atomic      Atomic             Coordinates (Angstroms)
 Number     Number       Type             X           Y           Z
 ---------------------------------------------------------------------
      1          6           0       -3.292883    0.462276   -0.374979
      2          1           0       -3.521184    1.356678   -0.965993
      3          6           0       -1.866836    0.125502   -0.234213
      4          1           0       -1.153898    0.953586   -0.297273
      5          6           0       -4.308898   -0.215965    0.176976
      6          1           0       -4.078486   -1.079068    0.813449
      7          6           0       -5.756154    0.122684    0.003213
      8          1           0       -6.239723    0.303622    0.975491
      9          1           0       -5.885932    1.014831   -0.624386
     10          1           0       -6.299336   -0.712752   -0.465895
     11          6           0       -1.392453   -1.111782   -0.041891
     12          1           0       -2.070920   -1.970409   -0.017297
     13          6           0        0.051711   -1.459008    0.132533
     14          1           0        0.369115   -2.161754   -0.654060
     15          1           0        0.212611   -1.952686    1.105159
     16          6           0        2.154174   -0.279168    0.019810
     17          6           0        2.874914   -1.593412    0.067765
     18          1           0        2.630247   -2.188344   -0.823362
     19          1           0        3.949066   -1.387762    0.096535
     20          1           0        2.569134   -2.169446    0.951388
     21          8           0        0.827541   -0.266512    0.065094
     22          8           0        2.720455    0.792274   -0.061796
     23          8           0        5.546915    0.367591   -0.071230
     24          1           0        4.627422    0.681377   -0.050107
     25          1           0        5.682026    0.160111   -1.003660
     26          8           0        0.525491    2.675321    0.254280
     27          1           0        0.165882    2.147693    0.977579
     28          1           0        1.299309    2.148164   -0.003634
 ---------------------------------------------------------------------

 SCF Done:  E(RM062X) =  -614.629399225     A.U. after    1 cycles

 The electronic state is 1-A.
 Alpha  occ. eigenvalues --  -19.69524 -19.64602 -19.60961 -19.60735 -10.71269
 Alpha  occ. eigenvalues --  -10.62925 -10.56995 -10.56337 -10.55809 -10.55753
 Alpha  occ. eigenvalues --  -10.55323 -10.54891  -1.24457  -1.15077  -1.08903
 Alpha  occ. eigenvalues --   -1.08669  -0.91406  -0.87610  -0.84779  -0.81509
 Alpha  occ. eigenvalues --   -0.74677  -0.69314  -0.65173  -0.60767  -0.59802
 Alpha  occ. eigenvalues --   -0.59582  -0.58641  -0.57283  -0.56394  -0.54056
 Alpha  occ. eigenvalues --   -0.51586  -0.51476  -0.48748  -0.47833  -0.47451
 Alpha  occ. eigenvalues --   -0.46670  -0.45667  -0.45505  -0.45081  -0.43260
 Alpha  occ. eigenvalues --   -0.41593  -0.40622  -0.39194  -0.37765  -0.37353
 Alpha  occ. eigenvalues --   -0.36986  -0.36343  -0.27995
 Alpha virt. eigenvalues --    0.00752   0.03619   0.08954   0.10291   0.11580
 Alpha virt. eigenvalues --    0.12114   0.12585   0.13316   0.14309   0.15494
 Alpha virt. eigenvalues --    0.17212   0.17780   0.18028   0.19150   0.19699

 Mulliken charges:
               1
     1  C   -0.049337
     2  H    0.034629
     3  C   -0.026190
     4  H    0.002851
     5  C   -0.146146
     6  H    0.043448
     7  C   -0.035708
     8  H    0.061128
     9  H    0.050002
    10  H    0.063517
    11  C   -0.160962
    12  H    0.059176
    13  C    0.201401
    14  H    0.079260
    15  H    0.084354
    16  C    0.242721
    17  C   -0.088421
    18  H    0.108120
    19  H    0.052638
    20  H    0.100587
    21  O   -0.335422
    22  O   -0.342177
    23  O   -0.373463
    24  H    0.186569
    25  H    0.187901
    26  O   -0.367308
    27  H    0.186751
    28  H    0.180080
 Sum of Mulliken charges =   0.00000

 Dipole moment (field-independent basis, Debye):
    X=             -2.8564    Y=             -7.8021    Z=             -0.4501  Tot=              8.3207
 Quadrupole moment (field-independent basis, Debye-Ang):
   XX=            -84.2721   YY=            -77.3693   ZZ=            -70.5660
   XY=             -9.1011   XZ=            -10.1662   YZ=             -0.8217

  Exact polarizability: 178.183  -4.354 132.845  -7.362 -10.859  89.737
 Approx polarizability: 143.388   0.416 126.773  -7.575 -10.090  88.485

                      1                      2                      3
                      A                      A                      A
 Frequencies --     25.0585                51.6334                54.8068
 Red. masses --      5.6111                 3.7123                 4.3378
 Frc consts  --      0.0021                 0.0058                 0.0077
 IR Inten    --      0.5143                 3.4115                 0.1926

                      4                      5                      6
                      A                      A                      A
 Frequencies --     61.7228                64.8105                97.5803
 Red. masses --      5.3757                 2.4718                 5.6297
 Frc consts  --      0.0121                 0.0061                 0.0316
 IR Inten    --      3.8307                 0.5241                12.4952

                      7                      8                      9
                      A                      A                      A
 Frequencies --    121.5110               134.4841               138.5471
 Red. masses --      5.3267                 3.0864                 3.0195
 Frc consts  --      0.0463                 0.0329                 0.0341
 IR Inten    --      2.3699                 1.2030                 1.2507

                     10                     11                     12
                      A                      A                      A
 Frequencies --    151.8168               155.5978               198.4443
 Red. masses --      2.9884                 4.1475                 2.9427
 Frc consts  --      0.0406                 0.0592                 0.0683
 IR Inten    --     15.0169                 6.7446                13.7517

                     13                     14                     15
                      A                      A                      A
 Frequencies --    210.3759               214.3221               228.4279
 Red. masses --      1.5987                 1.2248                 1.5247
 Frc consts  --      0.0417                 0.0331                 0.0469
 IR Inten    --     10.3023                32.9043                49.5567

                     16                     17                     18
                      A                      A                      A
 Frequencies --    260.0169               282.4937               312.8305
 Red. masses --      3.3189                 1.1104                 1.2809
 Frc consts  --      0.1322                 0.0522                 0.0739
 IR Inten    --     12.7028                58.5329                94.3667

                     19                     20                     21
                      A                      A                      A
 Frequencies --    327.3130               333.8502               358.7902
 Red. masses --      1.0792                 1.4226                 2.1155
 Frc consts  --      0.0681                 0.0934                 0.1605
 IR Inten    --     78.5216               102.2259                39.1123

                     22                     23                     24
                      A                      A                      A
 Frequencies --    380.7687               476.2830               516.7288
 Red. masses --      1.7755                 3.7816                 1.1160
 Frc consts  --      0.1517                 0.5054                 0.1756
 IR Inten    --     24.0456                 6.4430               191.1273

                     25                     26                     27
                      A                      A                      A
 Frequencies --    547.1330               591.1125               622.9035
 Red. masses --      3.9068                 2.3263                 2.3703
 Frc consts  --      0.6891                 0.4789                 0.5419
 IR Inten    --     33.2524                26.4001               189.9138

                     28                     29                     30
                      A                      A                      A
 Frequencies --    638.3112               714.3014               790.2003
 Red. masses --      1.3167                 3.0390                 1.5427
 Frc consts  --      0.3161                 0.9136                 0.5676
 IR Inten    --    207.5111                12.0561                 4.3040

                     31                     32                     33
                      A                      A                      A
 Frequencies --    854.5040               882.7479               917.1060
 Red. masses --      1.7681                 2.9117                 1.6943
 Frc consts  --      0.7607                 1.3368                 0.8396
 IR Inten    --      4.6049                 0.8727                20.7954

                     34                     35                     36
                      A                      A                      A
 Frequencies --   1000.6588              1011.8696              1031.1997
 Red. masses --      1.2292                 1.8236                 1.6424
 Frc consts  --      0.7252                 1.1001                 1.0290
 IR Inten    --     36.9130                20.9148                19.7196

                     37                     38                     39
                      A                      A                      A
 Frequencies --   1043.8956              1057.8609              1064.6202
 Red. masses --      1.5603                 1.5646                 1.6690
 Frc consts  --      1.0018                 1.0316                 1.1146
 IR Inten    --     26.4189                 2.3159                43.1138

                     40                     41                     42
                      A                      A                      A
 Frequencies --   1067.8843              1097.0376              1139.2059
 Red. masses --      1.3569                 1.6285                 2.4144
 Frc consts  --      0.9117                 1.1547                 1.8461
 IR Inten    --      6.1543                 0.9313                 1.1320

                     43                     44                     45
                      A                      A                      A
 Frequencies --   1179.2025              1281.4900              1292.3809
 Red. masses --      4.5755                 1.0751                 1.4822
 Frc consts  --      3.7486                 1.0402                 1.4586
 IR Inten    --     98.8894                12.4464                17.6046

                     46                     47                     48
                      A                      A                      A
 Frequencies --   1299.2928              1318.8006              1340.5199
 Red. masses --      1.2965                 1.3420                 1.6715
 Frc consts  --      1.2895                 1.3752                 1.7697
 IR Inten    --      0.2939                54.1446               374.0045

                     49                     50                     51
                      A                      A                      A
 Frequencies --   1348.2913              1389.6084              1405.2830
 Red. masses --      1.4731                 1.3751                 1.8434
 Frc consts  --      1.5777                 1.5645                 2.1448
 IR Inten    --     53.0625                 2.4518               460.7960

                     52                     53                     54
                      A                      A                      A
 Frequencies --   1422.6765              1439.0584              1444.6536
 Red. masses --      1.4580                 1.0425                 1.1967
 Frc consts  --      1.7386                 1.2720                 1.4715
 IR Inten    --     83.1727                13.1732                17.7538

                     55                     56                     57
                      A                      A                      A
 Frequencies --   1452.7862              1465.2834              1478.4210
 Red. masses --      1.0552                 1.0568                 1.1819
 Frc consts  --      1.3122                 1.3368                 1.5220
 IR Inten    --     20.1757                14.4354                 6.0453

                     58                     59                     60
                      A                      A                      A
 Frequencies --   1641.1418              1658.0212              1758.8645
 Red. masses --      1.0773                 1.0810                 6.8900
 Frc consts  --      1.7095                 1.7509                12.5584
 IR Inten    --    103.1834               180.1380                17.8736

                     61                     62                     63
                      A                      A                      A
 Frequencies --   1767.7105              1825.3896              3047.2485
 Red. masses --      5.9165                10.7818                 1.0371
 Frc consts  --     10.8927                21.1667                 5.6742
 IR Inten    --      0.8329               709.4564                32.3617

                     64                     65                     66
                      A                      A                      A
 Frequencies --   3067.3772              3079.9161              3121.0678
 Red. masses --      1.0587                 1.0370                 1.1083
 Frc consts  --      5.8688                 5.7957                 6.3606
 IR Inten    --     24.2838                 3.7571                14.4589

                     67                     68                     69
                      A                      A                      A
 Frequencies --   3123.8286              3147.2527              3161.4790
 Red. masses --      1.1018                 1.1016                 1.0970
 Frc consts  --      6.3344                 6.4288                 6.4602
 IR Inten    --     15.1853                 6.2450                 4.8790

                     70                     71                     72
                      A                      A                      A
 Frequencies --   3164.3972              3174.3089              3188.6415
 Red. masses --      1.0874                 1.1028                 1.0938
 Frc consts  --      6.4154                 6.5470                 6.5524
 IR Inten    --     51.2813                 0.2434                 6.7943

                     73                     74                     75
                      A                      A                      A
 Frequencies --   3195.1240              3214.3566              3748.3236
 Red. masses --      1.0888                 1.1080                 1.0572
 Frc consts  --      6.5487                 6.7447                 8.7514
 IR Inten    --      2.2135                 9.9325               562.7091

                     76                     77                     78
                      A                      A                      A
 Frequencies --   3778.9189              3913.1923              3914.4868
 Red. masses --      1.0568                 1.0706                 1.0705
 Frc consts  --      8.8912                 9.6588                 9.6648
 IR Inten    --    280.7129               182.0687                12.8766

 - Thermochemistry -
 -------------------
 Temperature   298.150 Kelvin.  Pressure   1.00000 Atm.
 Atom     1 has atomic number  6 and mass  12.00000

 Molecular mass:   176.10486 amu.
 Principal axes and moments of inertia in atomic units:
                           1         2         3
     Eigenvalues --   910.626756582.679247402.23622
           X            0.99997  -0.00711  -0.00223
           Y            0.00709   0.99995  -0.00726
           Z            0.00229   0.00724   0.99997
 This molecule is an asymmetric top.
 Rotational symmetry number  1.
 Warning -- assumption of classical behavior for rotation
           may cause significant error
 Rotational temperatures (Kelvin)      0.09511     0.01316     0.01170
 Rotational constants (GHZ):           1.98187     0.27417     0.24381
 Zero-point vibrational energy     618945.2 (Joules/Mol)
                                  147.93146 (Kcal/Mol)
 Warning -- explicit consideration of  26 degrees of freedom as
           vibrations may cause significant error
 Vibrational temperatures:     36.05    74.29    78.85    88.81    93.25
          (Kelvin)            140.40   174.83   193.49   199.34   218.43
                              223.87   285.52   302.68   308.36   328.66
                              374.11   406.44   450.09   470.93   480.34
                              516.22   547.84   685.26   743.46   787.20
                              850.48   896.22   918.39  1027.72  1136.92
                             1229.44  1270.08  1319.51  1439.72  1455.85
                             1483.66  1501.93  1522.02  1531.75  1536.45
                             1578.39  1639.06  1696.61  1843.78  1859.45
                             1869.39  1897.46  1928.71  1939.89  1999.33
                             2021.89  2046.91  2070.48  2078.53  2090.23
                             2108.21  2127.12  2361.23  2385.52  2530.61
                             2543.34  2626.33  4384.31  4413.27  4431.31
                             4490.51  4494.49  4528.19  4548.66  4552.86
                             4567.12  4587.74  4597.06  4624.74  5392.99
                             5437.01  5630.20  5632.07

 Zero-point correction=                           0.235744 (Hartree/Particle)
 Thermal correction to Energy=                    0.253578
 Thermal correction to Enthalpy=                  0.254523
 Thermal correction to Gibbs Free Energy=         0.189047
 Sum of electronic and zero-point Energies=           -614.393655
 Sum of electronic and thermal Energies=              -614.375821
 Sum of electronic and thermal Enthalpies=            -614.374877
 Sum of electronic and thermal Free Energies=         -614.440353

                     E (Thermal)             CV                S
                      KCal/Mol        Cal/Mol-Kelvin    Cal/Mol-Kelvin
 Total                  159.123             60.596            137.806
 Electronic               0.000              0.000              0.000
 Translational            0.889              2.981             41.405
 Rotational               0.889              2.981             32.162
 Vibrational            157.345             54.635             64.239
 Vibration     1          0.593              1.985              6.187
 Vibration     2          0.596              1.977              4.754
 Vibration     3          0.596              1.976              4.636
 Vibration     4          0.597              1.973              4.401
 Vibration     5          0.597              1.971              4.305
 Vibration     6          0.603              1.951              3.502
 Vibration     7          0.609              1.931              3.076
 Vibration     8          0.613              1.919              2.881
 Vibration     9          0.614              1.915              2.824
 Vibration    10          0.619              1.901              2.649
 Vibration    11          0.620              1.896              2.603
 Vibration    12          0.637              1.842              2.147
 Vibration    13          0.643              1.825              2.040
 Vibration    14          0.644              1.819              2.007
 Vibration    15          0.651              1.798              1.891
 Vibration    16          0.668              1.746              1.662
 Vibration    17          0.682              1.706              1.519
 Vibration    18          0.701              1.649              1.347
 Vibration    19          0.711              1.621              1.273
 Vibration    20          0.715              1.608              1.241
 Vibration    21          0.734              1.557              1.127
 Vibration    22          0.751              1.511              1.036
 Vibration    23          0.833              1.303              0.720
 Vibration    24          0.872              1.213              0.618
 Vibration    25          0.902              1.146              0.550
 Vibration    26          0.949              1.051              0.465

 Normal termination of Gaussian 09 at Sun Sep  6 03:38:50 2020.
