 Gaussian 09, Revision D.01,
 Gaussian 09:  ES64L-G09RevD.01 24-Apr-2013

 ----------------------------------------------------------------------
 # freq scrf=(cpcm,solvent=toluene) geom=connectivity def2svp empirical
 dispersion=gd3 m062x
 ----------------------------------------------------------------------

 -------------------
 Title Card Required
 -------------------
 Symbolic Z-matrix:
 Charge =  0 Multiplicity = 1

                         Standard orientation:
 ---------------------------------------------------------------------
 Center     Atomic      Atomic             Coordinates (Angstroms)
 Number     Number       Type             X           Y           Z
 ---------------------------------------------------------------------
      1          6           0       -2.435953    0.793449   -0.607022
      2          6           0       -1.477622   -0.227404   -1.125661
      3          6           0       -0.197785    0.209390   -0.825865
      4          6           0       -0.316913    1.522589   -0.124520
      5          1           0       -1.766501   -0.895523   -1.932359
      6          1           0        0.718085   -0.053473   -1.350334
      7          6           0       -2.233506    2.914402    0.713043
      8          1           0       -2.783598    2.639404    1.623060
      9          1           0       -1.402494    3.579827    0.973509
     10          1           0       -2.920239    3.426464    0.026287
     11          7           0       -1.674004    1.745702    0.074014
     12          8           0        0.564525    2.272337    0.230713
     13          8           0       -3.636453    0.841860   -0.713113
     14          6           0       -0.977281   -2.638776    0.266854
     15          1           0       -1.075066   -3.599580   -0.247451
     16          6           0        0.318976   -2.178436    0.562750
     17          1           0        1.173176   -2.779344    0.240428
     18          6           0       -2.103838   -1.849014    0.390361
     19          1           0       -2.079969   -1.020346    1.104838
     20          6           0       -3.466690   -2.305427   -0.029434
     21          1           0       -4.032223   -1.476988   -0.479592
     22          1           0       -3.404278   -3.135199   -0.746331
     23          1           0       -4.038506   -2.646637    0.848074
     24          6           0        0.563342   -0.897843    1.013689
     25          1           0       -0.204627   -0.373437    1.589825
     26          6           0        1.951945   -0.362237    1.199404
     27          1           0        2.349118   -0.676762    2.180406
     28          1           0        1.917472    0.733873    1.185030
     29          6           0        3.774576   -0.151980   -0.398193
     30          6           0        3.913511    1.294149    0.006109
     31          1           0        4.133153    1.379165    1.079761
     32          1           0        4.737307    1.723389   -0.571235
     33          1           0        2.982798    1.846718   -0.190783
     34          8           0        2.791391   -0.878205    0.179065
     35          8           0        4.472767   -0.689570   -1.209205
 ---------------------------------------------------------------------

 SCF Done:  E(RM062X) =  -860.223516265     A.U. after   15 cycles

 The electronic state is 1-A.
 Alpha  occ. eigenvalues --  -19.67740 -19.63778 -19.63355 -19.61713 -14.80869
 Alpha  occ. eigenvalues --  -10.68957 -10.68437 -10.68019 -10.62420 -10.59617
 Alpha  occ. eigenvalues --  -10.59143 -10.59067 -10.58675 -10.58412 -10.56836
 Alpha  occ. eigenvalues --  -10.56667 -10.56278 -10.55514  -1.22031  -1.19019
 Alpha  occ. eigenvalues --   -1.16992  -1.13168  -1.06492  -0.94134  -0.90914
 Alpha  occ. eigenvalues --   -0.88345  -0.83711  -0.82260  -0.79408  -0.76471
 Alpha  occ. eigenvalues --   -0.74568  -0.70055  -0.69278  -0.65917  -0.63188
 Alpha  occ. eigenvalues --   -0.60509  -0.58658  -0.58582  -0.57844  -0.57423
 Alpha  occ. eigenvalues --   -0.56895  -0.54562  -0.54124  -0.52446  -0.52167
 Alpha  occ. eigenvalues --   -0.51453  -0.50763  -0.50384  -0.49497  -0.48286
 Alpha  occ. eigenvalues --   -0.47979  -0.47203  -0.46795  -0.46239  -0.45849
 Alpha  occ. eigenvalues --   -0.45096  -0.43127  -0.42672  -0.41862  -0.41354
 Alpha  occ. eigenvalues --   -0.37510  -0.37123  -0.35141  -0.34637  -0.34292
 Alpha  occ. eigenvalues --   -0.30600  -0.28922
 Alpha virt. eigenvalues --   -0.04258  -0.01314   0.05786   0.07510   0.08418
 Alpha virt. eigenvalues --    0.09858   0.10186   0.10765   0.12718   0.13447
 Alpha virt. eigenvalues --    0.13908   0.14194   0.14986   0.16031   0.16380

 Mulliken charges:
               1
     1  C    0.266623
     2  C   -0.114470
     3  C   -0.125262
     4  C    0.282296
     5  H    0.064044
     6  H    0.066823
     7  C    0.071047
     8  H    0.070638
     9  H    0.074392
    10  H    0.072775
    11  N   -0.386799
    12  O   -0.261894
    13  O   -0.249225
    14  C   -0.032816
    15  H    0.037827
    16  C   -0.005700
    17  H    0.051279
    18  C   -0.130218
    19  H    0.056389
    20  C    0.000622
    21  H    0.066703
    22  H    0.050591
    23  H    0.069606
    24  C   -0.142487
    25  H    0.064824
    26  C    0.224844
    27  H    0.078234
    28  H    0.065421
    29  C    0.189814
    30  C   -0.127589
    31  H    0.088162
    32  H    0.076524
    33  H    0.095262
    34  O   -0.350977
    35  O   -0.257300
 Sum of Mulliken charges =   0.00000

 Dipole moment (field-independent basis, Debye):
    X=             -2.2802    Y=              0.3218    Z=              3.2972  Tot=              4.0217
 Quadrupole moment (field-independent basis, Debye-Ang):
   XX=           -128.2139   YY=           -103.1687   ZZ=           -104.5206
   XY=             10.2638   XZ=              7.1608   YZ=              1.4891

  Exact polarizability: 232.297   9.797 200.348   7.187   0.937 137.913
 Approx polarizability: 246.097   9.877 215.292  12.302  -2.240 161.991

 ******    1 imaginary frequencies (negative Signs) ******

                      1                      2                      3
                      A                      A                      A
 Frequencies --   -428.2536                37.3944                41.4099
 Red. masses --      8.5417                 7.4438                 4.7741
 Frc consts  --      0.9230                 0.0061                 0.0048
 IR Inten    --     12.9790                 4.3641                 2.3175

                      4                      5                      6
                      A                      A                      A
 Frequencies --     60.4857                82.9470                89.2108
 Red. masses --      5.6627                 3.9676                 1.0290
 Frc consts  --      0.0122                 0.0161                 0.0048
 IR Inten    --      0.5252                 6.9149                 0.1614

                      7                      8                      9
                      A                      A                      A
 Frequencies --     97.7270               116.6924               154.1094
 Red. masses --      3.6844                 5.8195                 3.9971
 Frc consts  --      0.0207                 0.0467                 0.0559
 IR Inten    --      2.0990                 0.6245                 0.0565

                     10                     11                     12
                      A                      A                      A
 Frequencies --    163.4694               175.9928               182.4920
 Red. masses --      4.9509                 8.6765                 1.3210
 Frc consts  --      0.0779                 0.1583                 0.0259
 IR Inten    --      2.7699                 7.2955                 1.2090

                     13                     14                     15
                      A                      A                      A
 Frequencies --    199.7340               211.5549               243.0021
 Red. masses --      3.8351                 4.3553                 1.4967
 Frc consts  --      0.0901                 0.1148                 0.0521
 IR Inten    --      3.0311                 1.8479                 4.6827

                     16                     17                     18
                      A                      A                      A
 Frequencies --    258.2682               281.0663               286.8827
 Red. masses --      2.8536                 2.7605                 2.8729
 Frc consts  --      0.1121                 0.1285                 0.1393
 IR Inten    --      5.0014                 3.6148                 2.7329

                     19                     20                     21
                      A                      A                      A
 Frequencies --    311.9329               347.3632               368.2814
 Red. masses --      2.6132                 1.8028                 3.0532
 Frc consts  --      0.1498                 0.1282                 0.2440
 IR Inten    --      0.2598                 3.5198                 0.8685

                     22                     23                     24
                      A                      A                      A
 Frequencies --    406.6763               435.3802               468.9745
 Red. masses --      8.5238                 4.0608                 3.0032
 Frc consts  --      0.8306                 0.4535                 0.3892
 IR Inten    --     41.9271                14.6472                 1.5149

                     25                     26                     27
                      A                      A                      A
 Frequencies --    489.1885               546.4100               587.6742
 Red. masses --      2.8109                 4.5546                 2.4112
 Frc consts  --      0.3963                 0.8012                 0.4906
 IR Inten    --      2.0635                 6.2799                 5.1405

                     28                     29                     30
                      A                      A                      A
 Frequencies --    613.2839               619.0338               627.7732
 Red. masses --      4.8499                 9.1577                 3.7898
 Frc consts  --      1.0748                 2.0676                 0.8800
 IR Inten    --     20.7161                 9.8461                 6.1719

                     31                     32                     33
                      A                      A                      A
 Frequencies --    711.2305               721.8866               739.0934
 Red. masses --      3.8087                 7.3671                 3.1955
 Frc consts  --      1.1351                 2.2620                 1.0285
 IR Inten    --      4.6466                50.8258                 7.5422

                     34                     35                     36
                      A                      A                      A
 Frequencies --    777.5743               781.2842               796.2761
 Red. masses --      6.9957                 2.6917                 1.9841
 Frc consts  --      2.4921                 0.9680                 0.7412
 IR Inten    --      5.5127                 1.6235                18.9771

                     37                     38                     39
                      A                      A                      A
 Frequencies --    836.8406               867.4041               912.9270
 Red. masses --      1.8166                 1.9186                 1.5688
 Frc consts  --      0.7495                 0.8505                 0.7703
 IR Inten    --      5.1595                 7.5537                 6.8320

                     40                     41                     42
                      A                      A                      A
 Frequencies --    933.6023               962.7725               980.0842
 Red. masses --      1.4988                 1.2953                 1.3845
 Frc consts  --      0.7697                 0.7074                 0.7835
 IR Inten    --      5.3798                 9.9610               104.4348

                     43                     44                     45
                      A                      A                      A
 Frequencies --    983.4940               993.2039              1022.5056
 Red. masses --      1.6461                 1.5523                 1.8498
 Frc consts  --      0.9381                 0.9022                 1.1395
 IR Inten    --     69.5539                21.8451                17.8409

                     46                     47                     48
                      A                      A                      A
 Frequencies --   1029.3673              1032.3276              1055.4637
 Red. masses --      1.3160                 1.3880                 1.6045
 Frc consts  --      0.8216                 0.8715                 1.0531
 IR Inten    --      4.6639                41.9572                 9.9160

                     49                     50                     51
                      A                      A                      A
 Frequencies --   1058.8730              1068.3439              1111.6406
 Red. masses --      1.6877                 1.3770                 1.5713
 Frc consts  --      1.1149                 0.9260                 1.1440
 IR Inten    --     12.1838                13.6606                 9.2147

                     52                     53                     54
                      A                      A                      A
 Frequencies --   1124.6232              1148.8338              1170.5504
 Red. masses --      2.1658                 1.3181                 2.7021
 Frc consts  --      1.6139                 1.0250                 2.1814
 IR Inten    --     30.8420                 0.5200                12.7998

                     55                     56                     57
                      A                      A                      A
 Frequencies --   1172.9304              1184.9649              1251.8302
 Red. masses --      4.1214                 2.4884                 1.5184
 Frc consts  --      3.3407                 2.0586                 1.4019
 IR Inten    --     90.7920                41.8552               342.3600

                     58                     59                     60
                      A                      A                      A
 Frequencies --   1272.8988              1278.7142              1299.9322
 Red. masses --      1.4273                 1.3167                 3.3199
 Frc consts  --      1.3626                 1.2685                 3.3054
 IR Inten    --     72.7978                 3.9084                63.5707

                     61                     62                     63
                      A                      A                      A
 Frequencies --   1318.7447              1322.3447              1327.1120
 Red. masses --      1.4131                 1.5775                 1.9697
 Frc consts  --      1.4480                 1.6253                 2.0439
 IR Inten    --     60.1463               149.5239                10.9386

                     64                     65                     66
                      A                      A                      A
 Frequencies --   1371.8703              1396.0234              1397.8660
 Red. masses --      2.2381                 1.3853                 1.6766
 Frc consts  --      2.4817                 1.5906                 1.9303
 IR Inten    --     12.9357                 9.7074               252.7847

                     67                     68                     69
                      A                      A                      A
 Frequencies --   1420.0965              1423.2135              1448.0386
 Red. masses --      1.2885                 1.3139                 1.0603
 Frc consts  --      1.5309                 1.5681                 1.3098
 IR Inten    --     16.7300                10.9789                14.7080

                     70                     71                     72
                      A                      A                      A
 Frequencies --   1452.8590              1455.7993              1459.6321
 Red. masses --      1.0892                 1.0616                 1.0982
 Frc consts  --      1.3546                 1.3256                 1.3785
 IR Inten    --     18.3964                16.4390                56.4149

                     73                     74                     75
                      A                      A                      A
 Frequencies --   1464.8792              1479.8289              1492.7025
 Red. masses --      1.1258                 1.4728                 3.4837
 Frc consts  --      1.4234                 1.9003                 4.5734
 IR Inten    --     10.5302               233.7518                15.9665

                     76                     77                     78
                      A                      A                      A
 Frequencies --   1493.2854              1505.3664              1647.8589
 Red. masses --      1.1200                 2.2049                 5.0487
 Frc consts  --      1.4715                 2.9439                 8.0773
 IR Inten    --     30.9368               259.6192                30.1674

                     79                     80                     81
                      A                      A                      A
 Frequencies --   1656.8280              1834.0410              1902.8960
 Red. masses --      4.5797                12.1649                11.9443
 Frc consts  --      7.4069                24.1090                25.4825
 IR Inten    --     20.0009              1171.6376               158.7520

                     82                     83                     84
                      A                      A                      A
 Frequencies --   1916.5672              3051.1735              3061.1805
 Red. masses --     12.0503                 1.0377                 1.0696
 Frc consts  --     26.0793                 5.6919                 5.9056
 IR Inten    --    515.7969                19.6412                22.5196

                     85                     86                     87
                      A                      A                      A
 Frequencies --   3068.2058              3074.2759              3135.1440
 Red. masses --      1.0385                 1.0338                 1.1006
 Frc consts  --      5.7599                 5.7565                 6.3736
 IR Inten    --      6.2951                35.7785                 5.0107

                     88                     89                     90
                      A                      A                      A
 Frequencies --   3157.7462              3162.9296              3164.5309
 Red. masses --      1.1030                 1.1021                 1.1077
 Frc consts  --      6.4801                 6.4959                 6.5354
 IR Inten    --      5.4740                 1.0375                 8.6139

                     91                     92                     93
                      A                      A                      A
 Frequencies --   3168.2116              3174.5204              3180.3432
 Red. masses --      1.0953                 1.0940                 1.0905
 Frc consts  --      6.4776                 6.4955                 6.4985
 IR Inten    --      0.2181                 9.4086                 7.9014

                     94                     95                     96
                      A                      A                      A
 Frequencies --   3183.1876              3199.7419              3207.2344
 Red. masses --      1.0890                 1.1060                 1.1061
 Frc consts  --      6.5013                 6.6716                 6.7038
 IR Inten    --     13.7900                 0.0919                 1.3830

                     97                     98                     99
                      A                      A                      A
 Frequencies --   3209.4243              3258.2604              3274.5517
 Red. masses --      1.0926                 1.0929                 1.1018
 Frc consts  --      6.6311                 6.8362                 6.9610
 IR Inten    --      1.3196                 0.7323                 3.8465

 - Thermochemistry -
 -------------------
 Temperature   298.150 Kelvin.  Pressure   1.00000 Atm.
 Atom     1 has atomic number  6 and mass  12.00000

 Molecular mass:   251.11576 amu.
 Principal axes and moments of inertia in atomic units:
                           1         2         3
     Eigenvalues --  2790.822886189.287148071.86040
           X            0.99956   0.02964   0.00293
           Y           -0.02969   0.99943   0.01611
           Z           -0.00245  -0.01619   0.99987
 This molecule is an asymmetric top.
 Rotational symmetry number  1.
 Warning -- assumption of classical behavior for rotation
           may cause significant error
 Rotational temperatures (Kelvin)      0.03104     0.01399     0.01073
 Rotational constants (GHZ):           0.64667     0.29159     0.22358
    1 imaginary frequencies ignored.
 Zero-point vibrational energy     751879.3 (Joules/Mol)
                                  179.70346 (Kcal/Mol)
 Warning -- explicit consideration of  28 degrees of freedom as
           vibrations may cause significant error
 Vibrational temperatures:     53.80    59.58    87.03   119.34   128.35
          (Kelvin)            140.61   167.89   221.73   235.20   253.21
                              262.56   287.37   304.38   349.63   371.59
                              404.39   412.76   448.80   499.78   529.87
                              585.12   626.41   674.75   703.83   786.16
                              845.53   882.38   890.65   903.22  1023.30
                             1038.63  1063.39  1118.75  1124.09  1145.66
                             1204.03  1248.00  1313.50  1343.24  1385.21
                             1410.12  1415.03  1429.00  1471.16  1481.03
                             1485.29  1518.57  1523.48  1537.11  1599.40
                             1618.08  1652.91  1684.16  1687.58  1704.90
                             1801.10  1831.42  1839.78  1870.31  1897.38
                             1902.56  1909.42  1973.81  2008.56  2011.21
                             2043.20  2047.68  2083.40  2090.34  2094.57
                             2100.08  2107.63  2129.14  2147.66  2148.50
                             2165.88  2370.90  2383.80  2638.77  2737.84
                             2757.51  4389.95  4404.35  4414.46  4423.19
                             4510.77  4543.29  4550.74  4553.05  4558.34
                             4567.42  4575.80  4579.89  4603.71  4614.49
                             4617.64  4687.90  4711.34

 Zero-point correction=                           0.286376 (Hartree/Particle)
 Thermal correction to Energy=                    0.304510
 Thermal correction to Enthalpy=                  0.305455
 Thermal correction to Gibbs Free Energy=         0.239806
 Sum of electronic and zero-point Energies=           -859.937141
 Sum of electronic and thermal Energies=              -859.919006
 Sum of electronic and thermal Enthalpies=            -859.918062
 Sum of electronic and thermal Free Energies=         -859.983711

                     E (Thermal)             CV                S
                      KCal/Mol        Cal/Mol-Kelvin    Cal/Mol-Kelvin
 Total                  191.083             67.147            138.170
 Electronic               0.000              0.000              0.000
 Translational            0.889              2.981             42.463
 Rotational               0.889              2.981             33.300
 Vibrational            189.306             61.186             62.407
 Vibration     1          0.594              1.982              5.393
 Vibration     2          0.594              1.981              5.190
 Vibration     3          0.597              1.973              4.441
 Vibration     4          0.600              1.961              3.820
 Vibration     5          0.602              1.957              3.677
 Vibration     6          0.603              1.951              3.499
 Vibration     7          0.608              1.936              3.154
 Vibration     8          0.620              1.898              2.621
 Vibration     9          0.623              1.887              2.509
 Vibration    10          0.628              1.872              2.371
 Vibration    11          0.630              1.864              2.303
 Vibration    12          0.638              1.840              2.136
 Vibration    13          0.643              1.823              2.030
 Vibration    14          0.659              1.774              1.781
 Vibration    15          0.667              1.749              1.673
 Vibration    16          0.681              1.709              1.527
 Vibration    17          0.684              1.698              1.492
 Vibration    18          0.700              1.651              1.352
 Vibration    19          0.725              1.581              1.178
 Vibration    20          0.741              1.537              1.087
 Vibration    21          0.771              1.456              0.938
 Vibration    22          0.796              1.393              0.841
 Vibration    23          0.826              1.319              0.740
 Vibration    24          0.845              1.274              0.686
 Vibration    25          0.902              1.148              0.552
 Vibration    26          0.945              1.058              0.471
 Vibration    27          0.973              1.004              0.427
 Vibration    28          0.979              0.992              0.418

 Optimization completed.
    -- Stationary point found.

 1\1\GINC-D10S7B1\Freq\RM062X\def2SVP\C13H17N1O4\CHMKSH\06-Sep-2020\0\\
 # freq scrf=(cpcm,solvent=toluene) geom=connectivity def2svp empirical
 dispersion=gd3 m062x\\Title Card Required\\0,1\C,-2.435953,0.793449,-0
 .607022\C,-1.477622,-0.227404,-1.125661\C,-0.197785,0.20939,-0.825865\
 C,-0.316913,1.522589,-0.12452\H,-1.766501,-0.895523,-1.932359\H,0.7180
 85,-0.053473,-1.350334\C,-2.233506,2.914402,0.713043\H,-2.783598,2.639
 404,1.62306\H,-1.402494,3.579827,0.973509\H,-2.920239,3.426464,0.02628
 7\N,-1.674004,1.745702,0.074014\O,0.564525,2.272337,0.230713\O,-3.6364

 Normal termination of Gaussian 09 at Sun Sep  6 04:14:30 2020.
