 Gaussian 09, Revision D.01,
 Gaussian 09:  ES64L-G09RevD.01 24-Apr-2013

 ----------------------------------------------------------------------
 # opt freq scrf=(cpcm,solvent=toluene) geom=connectivity def2svp m062x
  empiricaldispersion=gd3
 ----------------------------------------------------------------------

 -------------------
 Title Card Required
 -------------------
 Symbolic Z-matrix:
 Charge =  0 Multiplicity = 1

 SCF Done:  E(RM062X) =  -461.936795535     A.U. after   13 cycles
 Optimization completed.
    -- Stationary point found.
 Normal termination of Gaussian 09 at Sun Sep  6 02:54:50 2020.

 -------------------------------------------------------------------
 #N Geom=AllCheck Guess=TCheck SCRF=Check GenChk RM062X/def2SVP Freq
 -------------------------------------------------------------------

 Structure from the checkpoint file:  "m06-2x_diene_pm6_cpcmtoluene_1_gd3.chk"
 -------------------
 Title Card Required
 -------------------
 Charge =  0 Multiplicity = 1

                         Standard orientation:
 ---------------------------------------------------------------------
 Center     Atomic      Atomic             Coordinates (Angstroms)
 Number     Number       Type             X           Y           Z
 ---------------------------------------------------------------------
      1          6           0       -2.589135    0.640437   -0.268348
      2          1           0       -2.924044    1.552968   -0.774774
      3          6           0       -1.134193    0.437715   -0.193889
      4          1           0       -0.506139    1.332718   -0.174595
      5          6           0       -3.513811   -0.179654    0.248965
      6          1           0       -3.178182   -1.062233    0.806900
      7          6           0       -4.992366    0.025580    0.142176
      8          1           0       -5.455356    0.094647    1.138708
      9          1           0       -5.229818    0.941328   -0.416150
     10          1           0       -5.471450   -0.824257   -0.368815
     11          6           0       -0.529445   -0.755361   -0.167073
     12          1           0       -1.119070   -1.675305   -0.238313
     13          6           0        0.948800   -0.963526   -0.062405
     14          1           0        1.306073   -1.524829   -0.942837
     15          1           0        1.174827   -1.577656    0.826815
     16          6           0        2.944891    0.389225    0.076423
     17          6           0        3.742005   -0.888980   -0.007451
     18          1           0        3.571081   -1.385601   -0.972700
     19          1           0        4.801406   -0.635987    0.090805
     20          1           0        3.451474   -1.589949    0.786199
     21          8           0        1.602345    0.288808    0.026620
     22          8           0        3.437495    1.476384    0.176926
 ---------------------------------------------------------------------

 SCF Done:  E(RM062X) =  -461.936795535     A.U. after    1 cycles

 The electronic state is 1-A.
 Alpha  occ. eigenvalues --  -19.67606 -19.61712 -10.68970 -10.62559 -10.56886
 Alpha  occ. eigenvalues --  -10.56165 -10.55768 -10.55652 -10.55279 -10.55038
 Alpha  occ. eigenvalues --   -1.22130  -1.13212  -0.91126  -0.87202  -0.83986
 Alpha  occ. eigenvalues --   -0.81098  -0.74369  -0.68492  -0.64878  -0.59702
 Alpha  occ. eigenvalues --   -0.58362  -0.58100  -0.56339  -0.53369  -0.50903
 Alpha  occ. eigenvalues --   -0.50735  -0.48224  -0.47775  -0.47162  -0.45843
 Alpha  occ. eigenvalues --   -0.45406  -0.42466  -0.41436  -0.40513  -0.37583
 Alpha  occ. eigenvalues --   -0.35901  -0.35113  -0.27928
 Alpha virt. eigenvalues --    0.01010   0.05726   0.08687   0.10807   0.11778
 Alpha virt. eigenvalues --    0.12294   0.13862   0.14634   0.15194   0.16623
 Alpha virt. eigenvalues --    0.17829   0.18023   0.19177   0.20338   0.21420

 Mulliken charges:
               1
     1  C   -0.040934
     2  H    0.032621
     3  C   -0.012199
     4  H    0.049689
     5  C   -0.140655
     6  H    0.036503
     7  C   -0.034679
     8  H    0.059039
     9  H    0.047691
    10  H    0.059601
    11  C   -0.162085
    12  H    0.047158
    13  C    0.201186
    14  H    0.059216
    15  H    0.062597
    16  C    0.193374
    17  C   -0.108550
    18  H    0.087568
    19  H    0.081652
    20  H    0.081851
    21  O   -0.340722
    22  O   -0.259922
 Sum of Mulliken charges =   0.00000

 Dipole moment (field-independent basis, Debye):
    X=             -1.3622    Y=             -4.8341    Z=             -0.3064  Tot=              5.0317
 Quadrupole moment (field-independent basis, Debye-Ang):
   XX=            -57.7552   YY=            -61.0010   ZZ=            -61.0815
   XY=            -12.7644   XZ=             -1.5296   YZ=             -1.7245

  Exact polarizability: 150.320  -0.841 104.182  -4.641  -5.078  68.530
 Approx polarizability: 128.214   3.014 116.813  -5.274  -5.581  75.887

                      1                      2                      3
                      A                      A                      A
 Frequencies --     31.9649                43.4382                82.4302
 Red. masses --      2.9919                 2.8818                 3.7370
 Frc consts  --      0.0018                 0.0032                 0.0150
 IR Inten    --      2.3578                 0.5388                 2.0858

                      4                      5                      6
                      A                      A                      A
 Frequencies --    128.1601               132.7332               142.0178
 Red. masses --      1.9143                 2.3765                 1.4681
 Frc consts  --      0.0185                 0.0247                 0.0174
 IR Inten    --      0.5781                 1.6691                 0.7086

                      7                      8                      9
                      A                      A                      A
 Frequencies --    162.5985               203.1278               226.7294
 Red. masses --      3.8300                 1.3511                 1.6667
 Frc consts  --      0.0597                 0.0328                 0.0505
 IR Inten    --      0.7530                 5.4317                 2.2606

                     10                     11                     12
                      A                      A                      A
 Frequencies --    249.4446               341.0093               363.8901
 Red. masses --      3.7872                 2.5882                 2.9866
 Frc consts  --      0.1388                 0.1773                 0.2330
 IR Inten    --      0.5547                 0.9042                 3.1195

                     13                     14                     15
                      A                      A                      A
 Frequencies --    462.7803               535.2346               583.5659
 Red. masses --      3.5057                 4.1813                 2.3605
 Frc consts  --      0.4424                 0.7057                 0.4736
 IR Inten    --      3.5732                 6.2485                 7.4666

                     16                     17                     18
                      A                      A                      A
 Frequencies --    607.9137               708.4780               781.4050
 Red. masses --      4.8875                 2.8364                 1.6423
 Frc consts  --      1.0642                 0.8388                 0.5908
 IR Inten    --     13.6446                10.9978                 1.9584

                     19                     20                     21
                      A                      A                      A
 Frequencies --    849.2986               875.5817               920.9010
 Red. masses --      1.8027                 3.1927                 1.6509
 Frc consts  --      0.7661                 1.4421                 0.8249
 IR Inten    --      4.1752                 1.9885                12.9294

                     22                     23                     24
                      A                      A                      A
 Frequencies --    997.3160              1003.9815              1015.1766
 Red. masses --      1.2715                 1.5969                 1.5812
 Frc consts  --      0.7451                 0.9483                 0.9601
 IR Inten    --     19.6457                33.0326                32.9875

                     25                     26                     27
                      A                      A                      A
 Frequencies --   1020.6000              1039.0016              1052.7399
 Red. masses --      1.2020                 1.7811                 1.8903
 Frc consts  --      0.7377                 1.1328                 1.2343
 IR Inten    --     47.5945                 0.8045                19.0725

                     28                     29                     30
                      A                      A                      A
 Frequencies --   1060.1148              1089.1004              1140.5728
 Red. masses --      1.5958                 1.5660                 2.4264
 Frc consts  --      1.0567                 1.0944                 1.8598
 IR Inten    --      1.2054                 4.1222                 1.0190

                     31                     32                     33
                      A                      A                      A
 Frequencies --   1188.6593              1264.7178              1290.2655
 Red. masses --      4.1557                 1.0746                 1.7807
 Frc consts  --      3.4595                 1.0127                 1.7466
 IR Inten    --     59.6943                 2.9414               189.8111

                     34                     35                     36
                      A                      A                      A
 Frequencies --   1292.2480              1304.2963              1313.2167
 Red. masses --      1.2877                 1.6972                 1.5862
 Frc consts  --      1.2669                 1.7012                 1.6117
 IR Inten    --      1.9142               216.6807               167.3894

                     37                     38                     39
                      A                      A                      A
 Frequencies --   1328.5668              1392.3827              1396.0116
 Red. masses --      1.5032                 1.7147                 1.3701
 Frc consts  --      1.5633                 1.9587                 1.5732
 IR Inten    --      9.4506               300.1046                12.1853

                     40                     41                     42
                      A                      A                      A
 Frequencies --   1407.5158              1434.9106              1447.0573
 Red. masses --      1.4838                 1.1099                 1.0434
 Frc consts  --      1.7319                 1.3464                 1.2873
 IR Inten    --      2.7069                10.7391                11.3732

                     43                     44                     45
                      A                      A                      A
 Frequencies --   1451.8905              1459.0067              1478.9543
 Red. masses --      1.0457                 1.0550                 1.1023
 Frc consts  --      1.2988                 1.3231                 1.4206
 IR Inten    --     16.8387                15.7929                 3.7470

                     46                     47                     48
                      A                      A                      A
 Frequencies --   1762.3521              1766.1748              1915.6447
 Red. masses --      6.9101                 6.2100                11.9611
 Frc consts  --     12.6451                11.4133                25.8614
 IR Inten    --     12.3479                 0.8789               515.0892

                     49                     50                     51
                      A                      A                      A
 Frequencies --   3045.7923              3048.6113              3078.4141
 Red. masses --      1.0582                 1.0375                 1.0378
 Frc consts  --      5.7840                 5.6815                 5.7944
 IR Inten    --     32.6108                28.2315                 0.4507

                     52                     53                     54
                      A                      A                      A
 Frequencies --   3092.2752              3122.5315              3151.0961
 Red. masses --      1.1070                 1.1018                 1.0992
 Frc consts  --      6.2365                 6.3297                 6.4307
 IR Inten    --     22.3964                13.0880                 2.9608

                     55                     56                     57
                      A                      A                      A
 Frequencies --   3157.5472              3165.0277              3167.3185
 Red. masses --      1.0920                 1.0943                 1.1026
 Frc consts  --      6.4147                 6.4587                 6.5173
 IR Inten    --     14.0243                33.2117                 1.2644

                     58                     59                     60
                      A                      A                      A
 Frequencies --   3180.5820              3204.6365              3209.1726
 Red. masses --      1.0917                 1.0905                 1.1065
 Frc consts  --      6.5068                 6.5982                 6.7140
 IR Inten    --      6.4143                 2.3329                 1.4132

 - Thermochemistry -
 -------------------
 Temperature   298.150 Kelvin.  Pressure   1.00000 Atm.
 Atom     1 has atomic number  6 and mass  12.00000

 Molecular mass:   140.08373 amu.
 Principal axes and moments of inertia in atomic units:
                           1         2         3
     Eigenvalues --   362.310334384.256944679.67953
           X            0.99988  -0.01570  -0.00178
           Y            0.01566   0.99968  -0.01981
           Z            0.00209   0.01978   0.99980
 This molecule is an asymmetric top.
 Rotational symmetry number  1.
 Rotational temperatures (Kelvin)      0.23906     0.01976     0.01851
 Rotational constants (GHZ):           4.98120     0.41164     0.38565
 Zero-point vibrational energy     486689.8 (Joules/Mol)
                                  116.32166 (Kcal/Mol)
 Warning -- explicit consideration of  16 degrees of freedom as
           vibrations may cause significant error
 Vibrational temperatures:     45.99    62.50   118.60   184.39   190.97
          (Kelvin)            204.33   233.94   292.26   326.21   358.89
                              490.64   523.56   665.84   770.08   839.62
                              874.65  1019.34  1124.27  1221.95  1259.77
                             1324.97  1434.91  1444.50  1460.61  1468.41
                             1494.89  1514.66  1525.27  1566.97  1641.03
                             1710.21  1819.64  1856.40  1859.25  1876.59
                             1889.42  1911.51  2003.33  2008.55  2025.10
                             2064.51  2081.99  2088.94  2099.18  2127.88
                             2535.63  2541.13  2756.18  4382.21  4386.27
                             4429.15  4449.09  4492.62  4533.72  4543.00
                             4553.76  4557.06  4576.14  4610.75  4617.28

 Zero-point correction=                           0.185370 (Hartree/Particle)
 Thermal correction to Energy=                    0.197176
 Thermal correction to Enthalpy=                  0.198120
 Thermal correction to Gibbs Free Energy=         0.146214
 Sum of electronic and zero-point Energies=           -461.751425
 Sum of electronic and thermal Energies=              -461.739619
 Sum of electronic and thermal Enthalpies=            -461.738675
 Sum of electronic and thermal Free Energies=         -461.790581

                     E (Thermal)             CV                S
                      KCal/Mol        Cal/Mol-Kelvin    Cal/Mol-Kelvin
 Total                  123.730             40.653            109.246
 Electronic               0.000              0.000              0.000
 Translational            0.889              2.981             40.723
 Rotational               0.889              2.981             30.387
 Vibrational            121.952             34.691             38.136
 Vibration     1          0.594              1.983              5.704
 Vibration     2          0.595              1.980              5.096
 Vibration     3          0.600              1.961              3.832
 Vibration     4          0.611              1.925              2.973
 Vibration     5          0.613              1.921              2.906
 Vibration     6          0.615              1.911              2.777
 Vibration     7          0.623              1.888              2.519
 Vibration     8          0.639              1.835              2.105
 Vibration     9          0.650              1.800              1.905
 Vibration    10          0.662              1.764              1.735
 Vibration    11          0.721              1.594              1.207
 Vibration    12          0.737              1.547              1.105
 Vibration    13          0.820              1.333              0.758
 Vibration    14          0.890              1.172              0.576
 Vibration    15          0.940              1.067              0.479
 Vibration    16          0.967              1.015              0.436

 Normal termination of Gaussian 09 at Sun Sep  6 02:59:28 2020.
