 Gaussian 09, Revision D.01,
 Gaussian 09:  ES64L-G09RevD.01 24-Apr-2013

 ----------------------------------------------------------------------
 # opt=(calcfc,ts,noeigentest) scrf=(cpcm,solvent=toluene) geom=connect
 ivity def2svp m062x empiricaldispersion=gd3
 ----------------------------------------------------------------------

 -------------------
 Title Card Required
 -------------------
 Symbolic Z-matrix:
 Charge =  0 Multiplicity = 1

 SCF Done:  E(RM062X) =  -860.223515581     A.U. after   15 cycles

  Exact polarizability:   0.000   0.000   0.000   0.000   0.000   0.000
 Approx polarizability: 246.194   9.895 215.274  12.252  -2.218 161.870

 SCF Done:  E(RM062X) =  -860.223516265     A.U. after    9 cycles
 Optimization completed.
    -- Stationary point found.

                         Standard orientation:
 ---------------------------------------------------------------------
 Center     Atomic      Atomic             Coordinates (Angstroms)
 Number     Number       Type             X           Y           Z
 ---------------------------------------------------------------------
      1          6           0       -2.435953    0.793449   -0.607022
      2          6           0       -1.477622   -0.227404   -1.125661
      3          6           0       -0.197785    0.209390   -0.825865
      4          6           0       -0.316913    1.522589   -0.124520
      5          1           0       -1.766501   -0.895523   -1.932359
      6          1           0        0.718085   -0.053473   -1.350334
      7          6           0       -2.233506    2.914402    0.713043
      8          1           0       -2.783598    2.639404    1.623060
      9          1           0       -1.402494    3.579827    0.973509
     10          1           0       -2.920239    3.426464    0.026287
     11          7           0       -1.674004    1.745702    0.074014
     12          8           0        0.564525    2.272337    0.230713
     13          8           0       -3.636453    0.841860   -0.713113
     14          6           0       -0.977281   -2.638776    0.266854
     15          1           0       -1.075066   -3.599580   -0.247451
     16          6           0        0.318976   -2.178436    0.562750
     17          1           0        1.173176   -2.779344    0.240428
     18          6           0       -2.103838   -1.849014    0.390361
     19          1           0       -2.079969   -1.020346    1.104838
     20          6           0       -3.466690   -2.305427   -0.029434
     21          1           0       -4.032223   -1.476988   -0.479592
     22          1           0       -3.404278   -3.135199   -0.746331
     23          1           0       -4.038506   -2.646637    0.848074
     24          6           0        0.563342   -0.897843    1.013689
     25          1           0       -0.204627   -0.373437    1.589825
     26          6           0        1.951945   -0.362237    1.199404
     27          1           0        2.349118   -0.676762    2.180406
     28          1           0        1.917472    0.733873    1.185030
     29          6           0        3.774576   -0.151980   -0.398193
     30          6           0        3.913511    1.294149    0.006109
     31          1           0        4.133153    1.379165    1.079761
     32          1           0        4.737307    1.723389   -0.571235
     33          1           0        2.982798    1.846718   -0.190783
     34          8           0        2.791391   -0.878205    0.179065
     35          8           0        4.472767   -0.689570   -1.209205
 ---------------------------------------------------------------------

 The electronic state is 1-A.
 Alpha  occ. eigenvalues --  -19.67740 -19.63778 -19.63355 -19.61713 -14.80869
 Alpha  occ. eigenvalues --  -10.68957 -10.68437 -10.68019 -10.62420 -10.59617
 Alpha  occ. eigenvalues --  -10.59143 -10.59067 -10.58675 -10.58412 -10.56836
 Alpha  occ. eigenvalues --  -10.56667 -10.56278 -10.55514  -1.22031  -1.19019
 Alpha  occ. eigenvalues --   -1.16992  -1.13168  -1.06492  -0.94134  -0.90914
 Alpha  occ. eigenvalues --   -0.88345  -0.83711  -0.82260  -0.79408  -0.76471
 Alpha  occ. eigenvalues --   -0.74568  -0.70055  -0.69278  -0.65917  -0.63188
 Alpha  occ. eigenvalues --   -0.60509  -0.58658  -0.58582  -0.57844  -0.57423
 Alpha  occ. eigenvalues --   -0.56895  -0.54562  -0.54124  -0.52446  -0.52167
 Alpha  occ. eigenvalues --   -0.51453  -0.50763  -0.50384  -0.49497  -0.48286
 Alpha  occ. eigenvalues --   -0.47979  -0.47203  -0.46795  -0.46239  -0.45849
 Alpha  occ. eigenvalues --   -0.45096  -0.43127  -0.42672  -0.41862  -0.41354
 Alpha  occ. eigenvalues --   -0.37510  -0.37123  -0.35141  -0.34637  -0.34292
 Alpha  occ. eigenvalues --   -0.30600  -0.28922
 Alpha virt. eigenvalues --   -0.04258  -0.01314   0.05786   0.07510   0.08418
 Alpha virt. eigenvalues --    0.09858   0.10186   0.10765   0.12718   0.13447
 Alpha virt. eigenvalues --    0.13908   0.14194   0.14986   0.16031   0.16380

 Mulliken charges:
               1
     1  C    0.266623
     2  C   -0.114469
     3  C   -0.125262
     4  C    0.282297
     5  H    0.064043
     6  H    0.066823
     7  C    0.071048
     8  H    0.070638
     9  H    0.074392
    10  H    0.072775
    11  N   -0.386799
    12  O   -0.261894
    13  O   -0.249226
    14  C   -0.032815
    15  H    0.037826
    16  C   -0.005700
    17  H    0.051279
    18  C   -0.130219
    19  H    0.056389
    20  C    0.000622
    21  H    0.066703
    22  H    0.050591
    23  H    0.069606
    24  C   -0.142487
    25  H    0.064824
    26  C    0.224845
    27  H    0.078234
    28  H    0.065421
    29  C    0.189814
    30  C   -0.127589
    31  H    0.088162
    32  H    0.076523
    33  H    0.095262
    34  O   -0.350977
    35  O   -0.257299
 Sum of Mulliken charges =   0.00000

 Dipole moment (field-independent basis, Debye):
    X=             -2.2802    Y=              0.3217    Z=              3.2972  Tot=              4.0217
 Quadrupole moment (field-independent basis, Debye-Ang):
   XX=           -128.2139   YY=           -103.1687   ZZ=           -104.5206
   XY=             10.2638   XZ=              7.1608   YZ=              1.4891

 Normal termination of Gaussian 09 at Sun Sep  6 03:15:29 2020.
