 Gaussian 09, Revision D.01,
 Gaussian 09:  ES64L-G09RevD.01 24-Apr-2013

 ----------------------------------------------------------------------
 # opt freq scrf=(cpcm,solvent=toluene) geom=connectivity def2svp m062x
  empiricaldispersion=gd3
 ----------------------------------------------------------------------

 -------------------
 Title Card Required
 -------------------
 Symbolic Z-matrix:
 Charge =  0 Multiplicity = 1

 SCF Done:  E(RM062X) =  -398.290998986     A.U. after   12 cycles
 Optimization completed.
    -- Stationary point found.
 Normal termination of Gaussian 09 at Sun Sep  6 02:49:37 2020.

 -------------------------------------------------------------------
 #N Geom=AllCheck Guess=TCheck SCRF=Check GenChk RM062X/def2SVP Freq
 -------------------------------------------------------------------

 Structure from the checkpoint file:  "m06-2x_dienophile_pm6_cpcmtoluene_1_1_gd3.chk"
 -------------------
 Title Card Required
 -------------------
 Charge =  0 Multiplicity = 1

                         Standard orientation:
 ---------------------------------------------------------------------
 Center     Atomic      Atomic             Coordinates (Angstroms)
 Number     Number       Type             X           Y           Z
 ---------------------------------------------------------------------
      1          6           0       -1.138649   -0.220716    0.000895
      2          6           0       -0.635671   -1.641057    0.000412
      3          6           0        0.697326   -1.615664    0.000544
      4          6           0        1.149214   -0.178015    0.000907
      5          1           0       -1.310837   -2.494302   -0.000846
      6          1           0        1.405043   -2.442176   -0.000525
      7          6           0       -0.048627    2.033413    0.000228
      8          1           0        0.982150    2.391305   -0.102977
      9          1           0       -0.653257    2.395486   -0.841324
     10          1           0       -0.476485    2.414415    0.937413
     11          7           0       -0.010441    0.589209    0.002143
     12          8           0        2.272951    0.247099   -0.001618
     13          8           0       -2.274836    0.170782   -0.001464
 ---------------------------------------------------------------------

 SCF Done:  E(RM062X) =  -398.290998986     A.U. after    1 cycles

 The electronic state is 1-A.
 Alpha  occ. eigenvalues --  -19.64186 -19.64123 -14.80966 -10.68742 -10.68600
 Alpha  occ. eigenvalues --  -10.59717 -10.59544 -10.59443  -1.19637  -1.17716
 Alpha  occ. eigenvalues --   -1.07126  -0.92948  -0.80176  -0.76346  -0.69671
 Alpha  occ. eigenvalues --   -0.64083  -0.58354  -0.57647  -0.55143  -0.52863
 Alpha  occ. eigenvalues --   -0.52608  -0.50423  -0.48879  -0.48373  -0.47005
 Alpha  occ. eigenvalues --   -0.38151  -0.37017  -0.34973  -0.33835
 Alpha virt. eigenvalues --   -0.05951   0.10179   0.11099   0.11476   0.12527
 Alpha virt. eigenvalues --    0.15364   0.17325   0.18644   0.19312   0.23940
 Alpha virt. eigenvalues --    0.25561   0.25884   0.30189   0.35074   0.40801

 Mulliken charges:
               1
     1  C    0.263575
     2  C   -0.042266
     3  C   -0.052959
     4  C    0.271474
     5  H    0.067024
     6  H    0.067336
     7  C    0.066804
     8  H    0.076242
     9  H    0.074078
    10  H    0.075193
    11  N   -0.404874
    12  O   -0.230020
    13  O   -0.231606
 Sum of Mulliken charges =   0.00000

 Dipole moment (field-independent basis, Debye):
    X=              0.0544    Y=             -1.3097    Z=             -0.0039  Tot=              1.3108
 Quadrupole moment (field-independent basis, Debye-Ang):
   XX=            -59.4490   YY=            -35.9072   ZZ=            -45.0568
   XY=             -0.3234   XZ=              0.0035   YZ=             -0.0217

  Exact polarizability:  94.689  -0.256  68.804  -0.010   0.129  37.248
 Approx polarizability: 117.926   0.205  64.801   0.008   0.076  42.305

                      1                      2                      3
                      A                      A                      A
 Frequencies --     81.1695               148.0533               187.1357
 Red. masses --      1.0297                 7.8557                 3.8272
 Frc consts  --      0.0040                 0.1015                 0.0790
 IR Inten    --      0.0086                16.0680                 2.7435

                      4                      5                      6
                      A                      A                      A
 Frequencies --    266.1823               292.1157               394.0607
 Red. masses --      3.1276                 4.0809                 9.1679
 Frc consts  --      0.1306                 0.2052                 0.8388
 IR Inten    --      3.8003                 0.0006                30.3323

                      7                      8                      9
                      A                      A                      A
 Frequencies --    582.1331               619.8785               643.0332
 Red. masses --      3.7531                 9.1239                 1.9814
 Frc consts  --      0.7493                 2.0656                 0.4827
 IR Inten    --      0.0866                 2.9102                 0.1442

                     10                     11                     12
                      A                      A                      A
 Frequencies --    711.8926               760.8949               776.7328
 Red. masses --      7.5032                 5.0953                 8.0670
 Frc consts  --      2.2404                 1.7381                 2.8675
 IR Inten    --     51.5222                 0.5800                 0.0215

                     13                     14                     15
                      A                      A                      A
 Frequencies --    850.9390               968.9575               996.1249
 Red. masses --      2.2394                 1.9253                 1.2980
 Frc consts  --      0.9554                 1.0650                 0.7588
 IR Inten    --     88.8184                34.2957                 0.0364

                     16                     17                     18
                      A                      A                      A
 Frequencies --   1036.5160              1121.4955              1144.8081
 Red. masses --      1.2404                 2.1465                 1.3132
 Frc consts  --      0.7852                 1.5907                 1.0141
 IR Inten    --     14.8223                45.2175                 0.7932

                     19                     20                     21
                      A                      A                      A
 Frequencies --   1166.0266              1309.2043              1326.0829
 Red. masses --      4.0597                 3.0688                 2.3324
 Frc consts  --      3.2521                 3.0991                 2.4166
 IR Inten    --     11.8722                90.7869                 4.1488

                     22                     23                     24
                      A                      A                      A
 Frequencies --   1418.6147              1460.4580              1480.4554
 Red. masses --      1.2961                 1.0522                 1.2406
 Frc consts  --      1.5368                 1.3222                 1.6020
 IR Inten    --     20.0425                20.5716               104.4043

                     25                     26                     27
                      A                      A                      A
 Frequencies --   1509.5500              1694.6460              1877.4005
 Red. masses --      3.5486                 6.9821                12.5993
 Frc consts  --      4.7643                11.8139                26.1644
 IR Inten    --    271.0213                 3.9295              1075.0516

                     28                     29                     30
                      A                      A                      A
 Frequencies --   1944.7584              3075.4195              3168.7062
 Red. masses --     12.1251                 1.0335                 1.1079
 Frc consts  --     27.0189                 5.7593                 6.5543
 IR Inten    --     16.3209                27.9929                 9.6405

                     31                     32                     33
                      A                      A                      A
 Frequencies --   3196.8047              3259.0019              3280.0452
 Red. masses --      1.1066                 1.0911                 1.1128
 Frc consts  --      6.6628                 6.8280                 7.0540
 IR Inten    --      0.1377                 1.6305                 3.3224

 - Thermochemistry -
 -------------------
 Temperature   298.150 Kelvin.  Pressure   1.00000 Atm.
 Atom     1 has atomic number  6 and mass  12.00000

 Molecular mass:   111.03203 amu.
 Principal axes and moments of inertia in atomic units:
                           1         2         3
     Eigenvalues --   542.05308 765.970341296.52575
           X            0.99997  -0.00836   0.00001
           Y            0.00836   0.99997   0.00003
           Z           -0.00001  -0.00003   1.00000
 This molecule is an asymmetric top.
 Rotational symmetry number  1.
 Warning -- assumption of classical behavior for rotation
           may cause significant error
 Rotational temperatures (Kelvin)      0.15979     0.11308     0.06680
 Rotational constants (GHZ):           3.32945     2.35615     1.39198
 Zero-point vibrational energy     255697.6 (Joules/Mol)
                                   61.11319 (Kcal/Mol)
 Warning -- explicit consideration of   8 degrees of freedom as
           vibrations may cause significant error
 Vibrational temperatures:    116.78   213.02   269.25   382.98   420.29
          (Kelvin)            566.96   837.56   891.87   925.18  1024.25
                             1094.76  1117.54  1224.31  1394.11  1433.20
                             1491.31  1613.58  1647.12  1677.65  1883.65
                             1907.94  2041.07  2101.27  2130.04  2171.90
                             2438.21  2701.16  2798.07  4424.84  4559.06
                             4599.48  4688.97  4719.25

 Zero-point correction=                           0.097390 (Hartree/Particle)
 Thermal correction to Energy=                    0.104459
 Thermal correction to Enthalpy=                  0.105403
 Thermal correction to Gibbs Free Energy=         0.065751
 Sum of electronic and zero-point Energies=           -398.193609
 Sum of electronic and thermal Energies=              -398.186540
 Sum of electronic and thermal Enthalpies=            -398.185596
 Sum of electronic and thermal Free Energies=         -398.225248

                     E (Thermal)             CV                S
                      KCal/Mol        Cal/Mol-Kelvin    Cal/Mol-Kelvin
 Total                   65.549             24.934             83.454
 Electronic               0.000              0.000              0.000
 Translational            0.889              2.981             40.030
 Rotational               0.889              2.981             27.778
 Vibrational             63.771             18.973             15.646
 Vibration     1          0.600              1.962              3.862
 Vibration     2          0.617              1.905              2.697
 Vibration     3          0.632              1.857              2.256
 Vibration     4          0.672              1.735              1.621
 Vibration     5          0.687              1.688              1.462
 Vibration     6          0.761              1.483              0.985
 Vibration     7          0.939              1.070              0.481
 Vibration     8          0.980              0.990              0.417

 Optimization completed.
    -- Stationary point found.
 Normal termination of Gaussian 09 at Sun Sep  6 02:51:24 2020.
