 Gaussian 09, Revision D.01,
 Gaussian 09:  ES64L-G09RevD.01 24-Apr-2013

 ----------------------------------------------------------------------
 # opt freq scrf=(cpcm,solvent=toluene) geom=connectivity def2svp m062x
  empiricaldispersion=gd3
 ----------------------------------------------------------------------

 -------------------
 Title Card Required
 -------------------
 Symbolic Z-matrix:
 Charge =  0 Multiplicity = 1

 SCF Done:  E(RM062X) =  -860.305557281     A.U. after   13 cycles
 SCF Done:  E(RM062X) =  -860.317405142     A.U. after   13 cycles
 SCF Done:  E(RM062X) =  -860.320059748     A.U. after   12 cycles
 SCF Done:  E(RM062X) =  -860.321132561     A.U. after   12 cycles
 SCF Done:  E(RM062X) =  -860.321177616     A.U. after   12 cycles
 SCF Done:  E(RM062X) =  -860.321214862     A.U. after   12 cycles
 SCF Done:  E(RM062X) =  -860.321379645     A.U. after   11 cycles
 SCF Done:  E(RM062X) =  -860.321369473     A.U. after   10 cycles
 SCF Done:  E(RM062X) =  -860.321391438     A.U. after   10 cycles
 SCF Done:  E(RM062X) =  -860.321394146     A.U. after    9 cycles
 SCF Done:  E(RM062X) =  -860.322042923     A.U. after   11 cycles
 SCF Done:  E(RM062X) =  -860.322066831     A.U. after    6 cycles
 SCF Done:  E(RM062X) =  -860.322067895     A.U. after   10 cycles
 SCF Done:  E(RM062X) =  -860.322060788     A.U. after   10 cycles
 SCF Done:  E(RM062X) =  -860.322069261     A.U. after    9 cycles
 SCF Done:  E(RM062X) =  -860.322069367     A.U. after    8 cycles
 SCF Done:  E(RM062X) =  -860.322069295     A.U. after    9 cycles
 SCF Done:  E(RM062X) =  -860.322069372     A.U. after    8 cycles
 SCF Done:  E(RM062X) =  -860.322069361     A.U. after    5 cycles
 Optimization completed.
    -- Stationary point found.

 1\1\GINC-D10S6B1\FOpt\RM062X\def2SVP\C13H17N1O4\CHMKSH\06-Jul-2021\0\\
 # opt freq scrf=(cpcm,solvent=toluene) geom=connectivity def2svp m062x
  empiricaldispersion=gd3\\Title Card Required\\0,1\C,-2.8382246214,0.2
 073803043,-0.1389539383\C,-1.5671777865,0.8621949532,-0.6738127555\C,-
 0.5629771255,-0.3028042216,-0.8020554386\C,-1.3404747158,-1.535414458,
 -0.3427061011\H,-1.8351301031,1.2527343114,-1.6673113662\H,-0.31669995
 64,-0.4913746914,-1.8587174878\C,-3.6480148668,-2.0624989438,0.4584649
 488\H,-3.2044247599,-3.0627884598,0.507040626\H,-3.9863236419,-1.75011

 Normal termination of Gaussian 09 at Tue Jul  6 18:06:50 2021.

 -------------------------------------------------------------------
 #N Geom=AllCheck Guess=TCheck SCRF=Check GenChk RM062X/def2SVP Freq
 -------------------------------------------------------------------

 Structure from the checkpoint file:  "product_diels_m062x_toluene.chk"
 -------------------
 Title Card Required
 -------------------
 Charge =  0 Multiplicity = 1

                         Standard orientation:
 ---------------------------------------------------------------------
 Center     Atomic      Atomic             Coordinates (Angstroms)
 Number     Number       Type             X           Y           Z
 ---------------------------------------------------------------------
      1          6           0       -2.853408    0.185474   -0.091900
      2          6           0       -1.601041    0.840542   -0.668856
      3          6           0       -0.589055   -0.317789   -0.796297
      4          6           0       -1.344279   -1.547631   -0.294344
      5          1           0       -1.895107    1.208175   -1.663708
      6          1           0       -0.365013   -0.525804   -1.854258
      7          6           0       -3.627999   -2.078831    0.569883
      8          1           0       -3.174002   -3.073892    0.628636
      9          1           0       -3.946576   -1.749095    1.567308
     10          1           0       -4.504065   -2.101555   -0.091133
     11          7           0       -2.630929   -1.170989    0.045233
     12          8           0       -0.907408   -2.663872   -0.192231
     13          8           0       -3.881265    0.733780    0.212036
     14          6           0        0.740250   -0.196032   -0.026759
     15          1           0        1.043770   -1.216548    0.251570
     16          6           0       -1.206342    2.053064    0.199370
     17          1           0       -2.141401    2.433149    0.638908
     18          6           0       -0.282656    1.645432    1.318612
     19          1           0       -0.315223    2.241154    2.235271
     20          6           0        0.593414    0.641784    1.217972
     21          1           0        1.265103    0.424745    2.052085
     22          6           0       -0.611615    3.199489   -0.627582
     23          1           0       -1.341197    3.560429   -1.366956
     24          1           0       -0.337394    4.042291    0.022202
     25          1           0        0.294359    2.883550   -1.162946
     26          6           0        1.848217    0.330956   -0.945698
     27          1           0        2.012680   -0.379609   -1.768622
     28          1           0        1.589716    1.314391   -1.356797
     29          6           0        3.822934   -0.560180   -0.009080
     30          6           0        5.071597   -0.203447    0.745991
     31          1           0        4.804418    0.325164    1.670192
     32          1           0        5.636131   -1.112649    0.971972
     33          1           0        5.679560    0.479570    0.137661
     34          8           0        3.516829   -1.660696   -0.381324
     35          8           0        3.065673    0.526596   -0.235466
 ---------------------------------------------------------------------

 SCF Done:  E(RM062X) =  -860.322069361     A.U. after    1 cycles

 The electronic state is 1-A.
 Alpha  occ. eigenvalues --  -19.67892 -19.62926 -19.62901 -19.62663 -14.81598
 Alpha  occ. eigenvalues --  -10.69002 -10.67756 -10.67541 -10.61721 -10.59521
 Alpha  occ. eigenvalues --  -10.58445 -10.58073 -10.57381 -10.57242 -10.56352
 Alpha  occ. eigenvalues --  -10.56097 -10.55999 -10.55452  -1.22806  -1.18910
 Alpha  occ. eigenvalues --   -1.16776  -1.13162  -1.06383  -0.96252  -0.89487
 Alpha  occ. eigenvalues --   -0.88272  -0.85220  -0.81479  -0.78950  -0.77673
 Alpha  occ. eigenvalues --   -0.73695  -0.70267  -0.69553  -0.64976  -0.63052
 Alpha  occ. eigenvalues --   -0.60199  -0.58622  -0.58363  -0.57372  -0.56592
 Alpha  occ. eigenvalues --   -0.55901  -0.55563  -0.54255  -0.52503  -0.51693
 Alpha  occ. eigenvalues --   -0.50800  -0.50255  -0.49784  -0.49255  -0.48324
 Alpha  occ. eigenvalues --   -0.47411  -0.47207  -0.46710  -0.45383  -0.44716
 Alpha  occ. eigenvalues --   -0.44543  -0.43394  -0.42948  -0.40654  -0.39877
 Alpha  occ. eigenvalues --   -0.38096  -0.37249  -0.36483  -0.35707  -0.34198
 Alpha  occ. eigenvalues --   -0.33474  -0.31352
 Alpha virt. eigenvalues --    0.02089   0.03950   0.05032   0.06153   0.08785
 Alpha virt. eigenvalues --    0.10586   0.11510   0.12099   0.12521   0.13429
 Alpha virt. eigenvalues --    0.14676   0.15481   0.16264   0.16886   0.17288

 Mulliken charges:
               1
     1  C    0.226618
     2  C   -0.080337
     3  C   -0.108310
     4  C    0.244899
     5  H    0.068119
     6  H    0.071076
     7  C    0.070603
     8  H    0.079145
     9  H    0.075852
    10  H    0.074772
    11  N   -0.350478
    12  O   -0.242625
    13  O   -0.250390
    14  C   -0.094641
    15  H    0.063463
    16  C   -0.068482
    17  H    0.056568
    18  C   -0.072907
    19  H    0.038678
    20  C   -0.042051
    21  H    0.036278
    22  C   -0.007248
    23  H    0.053035
    24  H    0.049288
    25  H    0.031073
    26  C    0.240821
    27  H    0.058026
    28  H    0.044094
    29  C    0.170639
    30  C   -0.029481
    31  H    0.079362
    32  H    0.071228
    33  H    0.083033
    34  O   -0.280132
    35  O   -0.359589
 Sum of Mulliken charges =   0.00000

 Dipole moment (field-independent basis, Debye):
    X=              1.1419    Y=              3.0803    Z=             -0.3353  Tot=              3.3022
 Quadrupole moment (field-independent basis, Debye-Ang):
   XX=           -105.1994   YY=           -115.3202   ZZ=            -99.1854
   XY=             12.7626   XZ=              5.3418   YZ=             -3.0851

  Exact polarizability: 186.372 -15.354 177.173   0.814   1.916 132.750
 Approx polarizability: 180.388 -24.420 192.832  -1.806   4.751 144.477

                      1                      2                      3
                      A                      A                      A
 Frequencies --     20.2175                37.2109                55.4830
 Red. masses --      7.6988                 4.7402                 1.9562
 Frc consts  --      0.0019                 0.0039                 0.0035
 IR Inten    --      0.1032                 0.5979                 4.3903

                      4                      5                      6
                      A                      A                      A
 Frequencies --     70.2411                72.5840                85.7797
 Red. masses --      1.1378                 4.3900                 1.7885
 Frc consts  --      0.0033                 0.0136                 0.0078
 IR Inten    --      0.1843                 0.2501                 0.9181

                      7                      8                      9
                      A                      A                      A
 Frequencies --    100.3759               122.6844               150.0379
 Red. masses --      2.2550                 5.2864                 4.9114
 Frc consts  --      0.0134                 0.0469                 0.0651
 IR Inten    --      1.8754                 4.8583                 4.3534

                     10                     11                     12
                      A                      A                      A
 Frequencies --    163.6786               187.0974               225.4376
 Red. masses --      4.2214                 1.9532                 2.3806
 Frc consts  --      0.0666                 0.0403                 0.0713
 IR Inten    --      5.2602                 1.9487                 1.6339

                     13                     14                     15
                      A                      A                      A
 Frequencies --    235.6227               248.5498               276.6824
 Red. masses --      2.5012                 3.5252                 2.4902
 Frc consts  --      0.0818                 0.1283                 0.1123
 IR Inten    --      0.8075                 4.2119                 2.3099

                     16                     17                     18
                      A                      A                      A
 Frequencies --    290.7640               315.6931               332.2168
 Red. masses --      3.2013                 4.4660                 2.7469
 Frc consts  --      0.1595                 0.2622                 0.1786
 IR Inten    --      6.0632                 6.2967                 8.8847

                     19                     20                     21
                      A                      A                      A
 Frequencies --    408.2667               428.7822               451.5611
 Red. masses --      4.3635                 4.7557                 3.7315
 Frc consts  --      0.4285                 0.5152                 0.4483
 IR Inten    --     31.4943                12.9651                10.7031

                     22                     23                     24
                      A                      A                      A
 Frequencies --    487.0468               535.1239               579.1608
 Red. masses --      3.9419                 4.1030                 2.9066
 Frc consts  --      0.5509                 0.6923                 0.5744
 IR Inten    --      4.6792                 4.1492                 0.5514

                     25                     26                     27
                      A                      A                      A
 Frequencies --    603.9743               611.1982               625.2553
 Red. masses --      3.4410                 3.5313                 5.6048
 Frc consts  --      0.7396                 0.7772                 1.2910
 IR Inten    --      4.6782                10.0668                 3.0738

                     28                     29                     30
                      A                      A                      A
 Frequencies --    658.7484               666.0913               710.3144
 Red. masses --      5.0450                 4.9823                 3.1704
 Frc consts  --      1.2899                 1.3024                 0.9425
 IR Inten    --      4.0339                10.4099                 6.5490

                     31                     32                     33
                      A                      A                      A
 Frequencies --    761.9380               800.2635               817.5478
 Red. masses --      1.5753                 5.5081                 5.2688
 Frc consts  --      0.5388                 2.0783                 2.0749
 IR Inten    --     71.3278                 8.6768                14.3585

                     34                     35                     36
                      A                      A                      A
 Frequencies --    823.8047               845.6151               899.6791
 Red. masses --      3.1493                 2.4131                 3.2769
 Frc consts  --      1.2593                 1.0167                 1.5627
 IR Inten    --      1.7110                30.1815                 7.2553

                     37                     38                     39
                      A                      A                      A
 Frequencies --    934.7380               937.0495               974.5675
 Red. masses --      3.0790                 2.1671                 1.8207
 Frc consts  --      1.5851                 1.1211                 1.0189
 IR Inten    --      1.9871                 8.4670                10.5384

                     40                     41                     42
                      A                      A                      A
 Frequencies --   1000.1945              1012.9011              1025.5893
 Red. masses --      1.7895                 1.7129                 1.3592
 Frc consts  --      1.0547                 1.0354                 0.8423
 IR Inten    --     18.4965                23.7660                 6.6410

                     43                     44                     45
                      A                      A                      A
 Frequencies --   1056.5543              1058.1868              1067.9728
 Red. masses --      1.7233                 1.8987                 1.8742
 Frc consts  --      1.1334                 1.2526                 1.2594
 IR Inten    --      5.4991                15.6440                 3.6490

                     46                     47                     48
                      A                      A                      A
 Frequencies --   1102.7354              1113.3757              1115.4020
 Red. masses --      3.7869                 2.5646                 3.3464
 Frc consts  --      2.7131                 1.8731                 2.4529
 IR Inten    --      5.7899                10.2861                16.2512

                     49                     50                     51
                      A                      A                      A
 Frequencies --   1138.2099              1140.4948              1147.2048
 Red. masses --      2.9260                 1.8092                 1.3824
 Frc consts  --      2.2334                 1.3865                 1.0719
 IR Inten    --     58.3065                10.0390                 1.5579

                     52                     53                     54
                      A                      A                      A
 Frequencies --   1154.6502              1156.3619              1191.5059
 Red. masses --      1.6854                 1.6275                 1.1471
 Frc consts  --      1.3239                 1.2822                 0.9595
 IR Inten    --     66.3415                44.4184                 0.1746

                     55                     56                     57
                      A                      A                      A
 Frequencies --   1251.2335              1276.2356              1282.8477
 Red. masses --      1.4103                 1.5928                 1.6726
 Frc consts  --      1.3009                 1.5285                 1.6218
 IR Inten    --      1.8697               139.2295               119.6906

                     58                     59                     60
                      A                      A                      A
 Frequencies --   1295.3956              1306.2655              1321.4005
 Red. masses --      2.2504                 1.5124                 1.5732
 Frc consts  --      2.2250                 1.5205                 1.6185
 IR Inten    --     47.2306                 6.1519               202.8042

                     61                     62                     63
                      A                      A                      A
 Frequencies --   1342.6685              1350.5537              1359.4728
 Red. masses --      2.5215                 1.3230                 1.3912
 Frc consts  --      2.6782                 1.4218                 1.5149
 IR Inten    --    173.7251                 9.8324                26.1090

                     64                     65                     66
                      A                      A                      A
 Frequencies --   1375.7308              1386.6871              1388.9592
 Red. masses --      1.5952                 1.4245                 1.5301
 Frc consts  --      1.7788                 1.6139                 1.7392
 IR Inten    --     55.9367                 3.6870                22.0238

                     67                     68                     69
                      A                      A                      A
 Frequencies --   1390.2886              1416.7137              1420.7821
 Red. masses --      1.6384                 1.5362                 1.3261
 Frc consts  --      1.8658                 1.8166                 1.5772
 IR Inten    --    145.6516                55.2427                20.3436

                     70                     71                     72
                      A                      A                      A
 Frequencies --   1433.1358              1437.3397              1445.5917
 Red. masses --      1.5837                 1.1319                 1.0473
 Frc consts  --      1.9164                 1.3777                 1.2894
 IR Inten    --      3.1313                20.5234                11.6389

                     73                     74                     75
                      A                      A                      A
 Frequencies --   1459.4409              1461.0405              1468.4882
 Red. masses --      1.0421                 1.1040                 1.1002
 Frc consts  --      1.3078                 1.3884                 1.3979
 IR Inten    --     16.6979                14.2660                11.6788

                     76                     77                     78
                      A                      A                      A
 Frequencies --   1474.3886              1475.0730              1501.6234
 Red. masses --      1.3395                 1.1835                 3.0232
 Frc consts  --      1.7156                 1.5172                 4.0164
 IR Inten    --    137.4543                58.3567               253.0489

                     79                     80                     81
                      A                      A                      A
 Frequencies --   1758.8788              1859.7202              1895.3370
 Red. masses --      7.1326                12.9120                11.5948
 Frc consts  --     13.0008                26.3111                24.5407
 IR Inten    --      2.2504               910.8032               363.5685

                     82                     83                     84
                      A                      A                      A
 Frequencies --   1934.2572              3060.8606              3078.8055
 Red. masses --     12.3707                 1.0362                 1.0332
 Frc consts  --     27.2691                 5.7196                 5.7703
 IR Inten    --     60.9799                24.5029                24.2022

                     85                     86                     87
                      A                      A                      A
 Frequencies --   3083.6888              3086.1059              3089.2209
 Red. masses --      1.0368                 1.0863                 1.0859
 Frc consts  --      5.8085                 6.0957                 6.1059
 IR Inten    --      0.0714                 5.5702                 6.3880

                     88                     89                     90
                      A                      A                      A
 Frequencies --   3096.3195              3099.3017              3103.6302
 Red. masses --      1.0853                 1.0720                 1.0745
 Frc consts  --      6.1305                 6.0670                 6.0982
 IR Inten    --      6.5328                15.1608                15.0219

                     91                     92                     93
                      A                      A                      A
 Frequencies --   3150.7881              3159.6701              3172.9370
 Red. masses --      1.1052                 1.1049                 1.1076
 Frc consts  --      6.4641                 6.4990                 6.5701
 IR Inten    --     19.3674                32.1715                 7.1861

                     94                     95                     96
                      A                      A                      A
 Frequencies --   3175.1866              3179.6301              3183.4730
 Red. masses --      1.1029                 1.1059                 1.0865
 Frc consts  --      6.5513                 6.5877                 6.4875
 IR Inten    --      0.5746                 6.0304                 2.6208

                     97                     98                     99
                      A                      A                      A
 Frequencies --   3203.4210              3206.2803              3217.6119
 Red. masses --      1.0999                 1.1071                 1.1079
 Frc consts  --      6.6500                 6.7056                 6.7579
 IR Inten    --     15.6311                 0.1032                 1.9420

 - Thermochemistry -
 -------------------
 Temperature   298.150 Kelvin.  Pressure   1.00000 Atm.
 Atom     1 has atomic number  6 and mass  12.00000

 Molecular mass:   251.11576 amu.
 Principal axes and moments of inertia in atomic units:
                           1         2         3
     Eigenvalues --  2444.049946566.447278191.90849
           X            0.99994   0.01002   0.00413
           Y           -0.00995   0.99980  -0.01747
           Z           -0.00430   0.01743   0.99984
 This molecule is an asymmetric top.
 Rotational symmetry number  1.
 Warning -- assumption of classical behavior for rotation
           may cause significant error
 Rotational temperatures (Kelvin)      0.03544     0.01319     0.01057
 Rotational constants (GHZ):           0.73842     0.27484     0.22031
 Zero-point vibrational energy     766500.7 (Joules/Mol)
                                  183.19805 (Kcal/Mol)
 Warning -- explicit consideration of  26 degrees of freedom as
           vibrations may cause significant error
 Vibrational temperatures:     29.09    53.54    79.83   101.06   104.43
          (Kelvin)            123.42   144.42   176.52   215.87   235.50
                              269.19   324.35   339.01   357.61   398.08
                              418.34   454.21   477.99   587.40   616.92
                              649.69   700.75   769.92   833.28   868.98
                              879.38   899.60   947.79   958.36  1021.98
                             1096.26  1151.40  1176.27  1185.27  1216.65
                             1294.44  1344.88  1348.20  1402.18  1439.06
                             1457.34  1475.59  1520.14  1522.49  1536.57
                             1586.59  1601.90  1604.81  1637.63  1640.92
                             1650.57  1661.28  1663.74  1714.31  1800.24
                             1836.22  1845.73  1863.78  1879.42  1901.20
                             1931.80  1943.14  1955.98  1979.37  1995.13
                             1998.40  2000.31  2038.33  2044.19  2061.96
                             2068.01  2079.88  2099.81  2102.11  2112.82
                             2121.31  2122.30  2160.50  2530.63  2675.72
                             2726.96  2782.96  4403.89  4429.71  4436.73
                             4440.21  4444.69  4454.91  4459.20  4465.43
                             4533.28  4546.05  4565.14  4568.38  4574.77
                             4580.30  4609.00  4613.12  4629.42

 Zero-point correction=                           0.291945 (Hartree/Particle)
 Thermal correction to Energy=                    0.309587
 Thermal correction to Enthalpy=                  0.310531
 Thermal correction to Gibbs Free Energy=         0.244530
 Sum of electronic and zero-point Energies=           -860.030125
 Sum of electronic and thermal Energies=              -860.012483
 Sum of electronic and thermal Enthalpies=            -860.011539
 Sum of electronic and thermal Free Energies=         -860.077540

                     E (Thermal)             CV                S
                      KCal/Mol        Cal/Mol-Kelvin    Cal/Mol-Kelvin
 Total                  194.269             64.770            138.911
 Electronic               0.000              0.000              0.000
 Translational            0.889              2.981             42.463
 Rotational               0.889              2.981             33.241
 Vibrational            192.491             58.809             63.208
 Vibration     1          0.593              1.986              6.613
 Vibration     2          0.594              1.982              5.402
 Vibration     3          0.596              1.975              4.612
 Vibration     4          0.598              1.968              4.147
 Vibration     5          0.599              1.967              4.082
 Vibration     6          0.601              1.959              3.754
 Vibration     7          0.604              1.949              3.447
 Vibration     8          0.610              1.930              3.058
 Vibration     9          0.618              1.903              2.672
 Vibration    10          0.623              1.887              2.507
 Vibration    11          0.632              1.858              2.256
 Vibration    12          0.650              1.802              1.915
 Vibration    13          0.655              1.786              1.836
 Vibration    14          0.662              1.765              1.741
 Vibration    15          0.678              1.717              1.554
 Vibration    16          0.687              1.691              1.470
 Vibration    17          0.703              1.644              1.332
 Vibration    18          0.714              1.611              1.249
 Vibration    19          0.773              1.452              0.933
 Vibration    20          0.790              1.408              0.863
 Vibration    21          0.810              1.357              0.791
 Vibration    22          0.843              1.279              0.691
 Vibration    23          0.890              1.172              0.576
 Vibration    24          0.936              1.076              0.487
 Vibration    25          0.962              1.023              0.443
 Vibration    26          0.970              1.008              0.431

 Optimization completed.
    -- Stationary point found.

 1\1\GINC-D10S6B1\Freq\RM062X\def2SVP\C13H17N1O4\CHMKSH\06-Jul-2021\0\\
 #N Geom=AllCheck Guess=TCheck SCRF=Check GenChk RM062X/def2SVP Freq\\T
 itle Card Required\\0,1\C,-2.8382246214,0.2073803043,-0.1389539383\C,-
 1.5671777865,0.8621949532,-0.6738127555\C,-0.5629771255,-0.3028042216,
 -0.8020554386\C,-1.3404747158,-1.535414458,-0.3427061011\H,-1.83513010
 31,1.2527343114,-1.6673113662\H,-0.3166999564,-0.4913746914,-1.8587174
 878\C,-3.6480148668,-2.0624989438,0.4584649488\H,-3.2044247599,-3.0627
 884598,0.507040626\H,-3.9863236419,-1.7501156374,1.4549785529\H,-4.508

 Normal termination of Gaussian 09 at Tue Jul  6 18:33:21 2021.
