 Gaussian 09, Revision D.01,
 Gaussian 09:  ES64L-G09RevD.01 24-Apr-2013

 ----------------------------------------------------------------------
 # freq scrf=(cpcm,solvent=water) geom=connectivity def2svp empiricaldi
 spersion=gd3 m062x
 ----------------------------------------------------------------------

 -------------------
 Title Card Required
 -------------------
 Symbolic Z-matrix:
 Charge =  0 Multiplicity = 1

                         Standard orientation:
 ---------------------------------------------------------------------
 Center     Atomic      Atomic             Coordinates (Angstroms)
 Number     Number       Type             X           Y           Z
 ---------------------------------------------------------------------
      1          6           0       -2.266045    2.695596    0.334888
      2          6           0       -2.595451    1.354746    0.326109
      3          6           0       -1.652517    0.383115   -0.085266
      4          6           0       -0.355802    0.809434   -0.476534
      5          6           0       -0.051905    2.186550   -0.477589
      6          6           0       -0.986645    3.119553   -0.075685
      7          1           0       -3.005635    3.430693    0.655983
      8          1           0       -3.589888    1.031726    0.633352
      9          1           0        0.944001    2.485981   -0.806071
     10          1           0       -0.739076    4.182000   -0.076714
     11          6           0        0.655783   -0.156018   -0.927934
     12          6           0       -1.951570   -1.028444   -0.146150
     13          6           0        0.302892   -1.534204   -0.883265
     14          1           0        0.957711   -2.240519   -1.390650
     15          6           0       -1.031667   -1.940836   -0.561633
     16          1           0       -1.303871   -2.995378   -0.620102
     17          8           0        1.831804    0.213546   -1.218104
     18         17           0       -3.554299   -1.573930    0.286619
     19          6           0        3.096889   -0.144460    0.423399
     20          6           0        2.723739   -1.488048    0.570543
     21          1           0        3.331263   -2.233787    0.050029
     22          6           0        4.382550    0.185375   -0.267842
     23          1           0        4.705197   -0.625717   -0.931915
     24          1           0        4.262487    1.107410   -0.851829
     25          1           0        5.169422    0.364514    0.482782
     26          6           0        2.547385    0.932068    1.310123
     27          1           0        1.490953    0.782127    1.564147
     28          1           0        3.124434    0.934472    2.249405
     29          1           0        2.662672    1.917307    0.841360
     30          6           0        1.467719   -1.868038    1.005831
     31          1           0        1.205746   -2.926260    1.053537
     32          1           0        0.841098   -1.204458    1.605027
 ---------------------------------------------------------------------

 SCF Done:  E(RM062X) =  -1115.07449230     A.U. after   15 cycles

 The electronic state is 1-A.
 Alpha  occ. eigenvalues -- -102.64328 -19.61830 -10.61592 -10.61569 -10.61097
 Alpha  occ. eigenvalues --  -10.58940 -10.58166 -10.57236 -10.57034 -10.56907
 Alpha  occ. eigenvalues --  -10.56573 -10.56504 -10.56361 -10.56288 -10.55445
 Alpha  occ. eigenvalues --  -10.55201 -10.55187  -9.81319  -7.54017  -7.53351
 Alpha  occ. eigenvalues --   -7.53346  -1.12555  -0.99532  -0.95140  -0.92653
 Alpha  occ. eigenvalues --   -0.90684  -0.84834  -0.84545  -0.83161  -0.78442
 Alpha  occ. eigenvalues --   -0.78147  -0.71053  -0.70660  -0.70162  -0.65272
 Alpha  occ. eigenvalues --   -0.60472  -0.59270  -0.58950  -0.56885  -0.55172
 Alpha  occ. eigenvalues --   -0.53855  -0.52984  -0.52692  -0.50681  -0.49999
 Alpha  occ. eigenvalues --   -0.49794  -0.48116  -0.47820  -0.46549  -0.45627
 Alpha  occ. eigenvalues --   -0.45118  -0.44775  -0.44184  -0.43032  -0.42355
 Alpha  occ. eigenvalues --   -0.42148  -0.41354  -0.40457  -0.37812  -0.36870
 Alpha  occ. eigenvalues --   -0.34704  -0.33140  -0.32278  -0.29190  -0.25182
 Alpha virt. eigenvalues --   -0.03947  -0.01221   0.01567   0.06032   0.08262
 Alpha virt. eigenvalues --    0.09263   0.09738   0.11688   0.12107   0.12365
 Alpha virt. eigenvalues --    0.14057   0.14371   0.16011   0.16642   0.17416

 Mulliken charges:
               1
     1  C   -0.015604
     2  C   -0.072351
     3  C    0.070069
     4  C   -0.064110
     5  C   -0.058316
     6  C   -0.016469
     7  H    0.040387
     8  H    0.023018
     9  H    0.026270
    10  H    0.038672
    11  C    0.172968
    12  C    0.015645
    13  C   -0.151674
    14  H    0.045574
    15  C    0.021476
    16  H    0.033606
    17  O   -0.351777
    18  Cl  -0.116202
    19  C   -0.168869
    20  C   -0.050199
    21  H    0.040599
    22  C    0.011912
    23  H    0.052709
    24  H    0.059630
    25  H    0.072785
    26  C   -0.002225
    27  H    0.062463
    28  H    0.078097
    29  H    0.059500
    30  C   -0.016094
    31  H    0.081880
    32  H    0.076630
 Sum of Mulliken charges =   0.00000

 Dipole moment (field-independent basis, Debye):
    X=              2.9252    Y=             -0.2930    Z=              2.5240  Tot=              3.8747
 Quadrupole moment (field-independent basis, Debye-Ang):
   XX=           -101.5864   YY=            -93.9871   ZZ=           -112.2065
   XY=             -4.3328   XZ=              2.2585   YZ=              3.1109

  Exact polarizability: 356.404 -10.232 289.749  -5.176   5.464 152.756
 Approx polarizability: 317.200  -0.517 275.396 -11.147   1.761 162.754

 ******    1 imaginary frequencies (negative Signs) ******

                      1                      2                      3
                      A                      A                      A
 Frequencies --   -412.7587                52.6950                72.7727
 Red. masses --      8.7276                 4.1007                 4.3096
 Frc consts  --      0.8761                 0.0067                 0.0134
 IR Inten    --    119.4691                 0.0673                 1.3565

                      4                      5                      6
                      A                      A                      A
 Frequencies --     83.0349               134.1410               159.9250
 Red. masses --      5.2431                 3.8717                 1.2859
 Frc consts  --      0.0213                 0.0410                 0.0194
 IR Inten    --      1.1632                 1.0083                 3.3046

                      7                      8                      9
                      A                      A                      A
 Frequencies --    184.3068               194.5310               208.0733
 Red. masses --      3.2568                 1.5712                 2.7217
 Frc consts  --      0.0652                 0.0350                 0.0694
 IR Inten    --     27.7579                 7.4618                14.2602

                     10                     11                     12
                      A                      A                      A
 Frequencies --    215.0548               224.3922               275.0551
 Red. masses --      2.2261                 6.0576                 4.7544
 Frc consts  --      0.0607                 0.1797                 0.2119
 IR Inten    --      0.4583                 7.8868                25.1858

                     13                     14                     15
                      A                      A                      A
 Frequencies --    300.1080               333.7807               345.8653
 Red. masses --      2.9869                 3.1329                 6.1946
 Frc consts  --      0.1585                 0.2056                 0.4366
 IR Inten    --     20.4049                18.9159                32.8472

                     16                     17                     18
                      A                      A                      A
 Frequencies --    370.1394               391.0985               409.6929
 Red. masses --      5.1410                 4.8478                 2.5557
 Frc consts  --      0.4150                 0.4369                 0.2527
 IR Inten    --      0.9131                 1.1926                 4.8182

                     19                     20                     21
                      A                      A                      A
 Frequencies --    438.2378               470.6609               487.4171
 Red. masses --      2.9393                 2.4079                 5.9227
 Frc consts  --      0.3326                 0.3143                 0.8290
 IR Inten    --      3.9078                 7.0750                 0.5142

                     22                     23                     24
                      A                      A                      A
 Frequencies --    493.1371               530.5016               537.4393
 Red. masses --      4.0532                 3.1183                 4.4588
 Frc consts  --      0.5807                 0.5171                 0.7588
 IR Inten    --      2.9133                 3.0860                 6.2412

                     25                     26                     27
                      A                      A                      A
 Frequencies --    586.5562               617.7336               661.8505
 Red. masses --      5.1573                 3.2884                 7.0061
 Frc consts  --      1.0454                 0.7393                 1.8082
 IR Inten    --      8.2738                 1.5604                42.9405

                     28                     29                     30
                      A                      A                      A
 Frequencies --    720.3387               751.7011               758.5092
 Red. masses --      3.2218                 5.8471                 1.5566
 Frc consts  --      0.9850                 1.9466                 0.5277
 IR Inten    --     17.8299                23.5974                18.2685

                     31                     32                     33
                      A                      A                      A
 Frequencies --    793.9802               801.2121               809.0924
 Red. masses --      3.8782                 1.6603                 2.2755
 Frc consts  --      1.4405                 0.6280                 0.8777
 IR Inten    --      7.2565                60.9687                18.2196

                     34                     35                     36
                      A                      A                      A
 Frequencies --    839.4687               892.5878               921.4240
 Red. masses --      2.9621                 1.3037                 1.6878
 Frc consts  --      1.2299                 0.6120                 0.8443
 IR Inten    --      6.6747                90.7376                 3.2676

                     37                     38                     39
                      A                      A                      A
 Frequencies --    925.0316               937.5994               960.4329
 Red. masses --      1.2734                 1.2621                 4.7099
 Frc consts  --      0.6420                 0.6537                 2.5597
 IR Inten    --      1.4764                76.2562                44.5410

                     40                     41                     42
                      A                      A                      A
 Frequencies --    973.4295               983.4053              1013.6641
 Red. masses --      1.3631                 1.2565                 1.2464
 Frc consts  --      0.7610                 0.7159                 0.7546
 IR Inten    --     11.3132                 2.5731                13.7161

                     43                     44                     45
                      A                      A                      A
 Frequencies --   1015.8195              1044.9337              1048.5346
 Red. masses --      1.3640                 1.3634                 1.3536
 Frc consts  --      0.8292                 0.8771                 0.8768
 IR Inten    --      5.3971                11.4251                 0.6296

                     46                     47                     48
                      A                      A                      A
 Frequencies --   1057.0036              1063.2106              1073.6010
 Red. masses --      1.8531                 1.7187                 1.6034
 Frc consts  --      1.2198                 1.1447                 1.0889
 IR Inten    --    122.6980                31.9006                31.6172

                     49                     50                     51
                      A                      A                      A
 Frequencies --   1077.8226              1126.5739              1150.5750
 Red. masses --      1.6327                 1.6112                 1.2207
 Frc consts  --      1.1175                 1.2048                 0.9521
 IR Inten    --      3.2350                 9.8854                12.2946

                     52                     53                     54
                      A                      A                      A
 Frequencies --   1162.0998              1210.8655              1254.1609
 Red. masses --      1.4279                 1.9192                 1.6355
 Frc consts  --      1.1362                 1.6579                 1.5157
 IR Inten    --      4.8388                51.1022                18.6702

                     55                     56                     57
                      A                      A                      A
 Frequencies --   1257.4131              1281.8326              1338.0177
 Red. masses --      1.7360                 1.6944                 1.9350
 Frc consts  --      1.6171                 1.6403                 2.0411
 IR Inten    --     13.6118                27.9038                38.3922

                     58                     59                     60
                      A                      A                      A
 Frequencies --   1342.8720              1346.4111              1379.4001
 Red. masses --      1.4123                 4.3030                 1.3257
 Frc consts  --      1.5005                 4.5959                 1.4862
 IR Inten    --      2.7477                 5.8288                13.7381

                     61                     62                     63
                      A                      A                      A
 Frequencies --   1408.7122              1414.1635              1427.2990
 Red. masses --      1.5150                 4.1064                 1.5558
 Frc consts  --      1.7714                 4.8385                 1.8674
 IR Inten    --     36.8951                15.8220                50.6121

                     64                     65                     66
                      A                      A                      A
 Frequencies --   1430.8270              1437.5989              1444.3935
 Red. masses --      1.0925                 2.2747                 1.0796
 Frc consts  --      1.3178                 2.7698                 1.3270
 IR Inten    --      2.6536                18.7850                14.1607

                     67                     68                     69
                      A                      A                      A
 Frequencies --   1467.5419              1485.3227              1508.3739
 Red. masses --      1.2298                 2.7753                 2.3832
 Frc consts  --      1.5605                 3.6074                 3.1947
 IR Inten    --     68.4822                15.0992                16.4642

                     70                     71                     72
                      A                      A                      A
 Frequencies --   1519.5548              1557.6666              1609.1266
 Red. masses --      3.0311                 3.6875                 5.9562
 Frc consts  --      4.1236                 5.2715                 9.0866
 IR Inten    --    101.9690                43.0296               140.9723

                     73                     74                     75
                      A                      A                      A
 Frequencies --   1664.7058              1675.8388              1705.5340
 Red. masses --      6.5470                 7.7717                 7.0035
 Frc consts  --     10.6897                12.8598                12.0030
 IR Inten    --    359.8483                23.1292                14.7461

                     76                     77                     78
                      A                      A                      A
 Frequencies --   3055.2476              3058.5422              3143.0294
 Red. masses --      1.0387                 1.0421                 1.0998
 Frc consts  --      5.7124                 5.7437                 6.4014
 IR Inten    --     14.4437                20.2426                 5.7498

                     79                     80                     81
                      A                      A                      A
 Frequencies --   3146.1943              3174.5643              3176.7702
 Red. masses --      1.0956                 1.0704                 1.1019
 Frc consts  --      6.3897                 6.3555                 6.5519
 IR Inten    --      5.2223                 7.3136                15.2705

                     82                     83                     84
                      A                      A                      A
 Frequencies --   3182.4468              3187.1465              3207.0285
 Red. masses --      1.0946                 1.0976                 1.0890
 Frc consts  --      6.5315                 6.5687                 6.5988
 IR Inten    --     12.3246                11.5443                 5.7969

                     85                     86                     87
                      A                      A                      A
 Frequencies --   3220.0637              3220.7176              3233.2907
 Red. masses --      1.0927                 1.0919                 1.0966
 Frc consts  --      6.6753                 6.6735                 6.7544
 IR Inten    --      5.3931                 5.0897                 6.2354

                     88                     89                     90
                      A                      A                      A
 Frequencies --   3236.3208              3237.6173              3276.3388
 Red. masses --      1.0943                 1.0963                 1.1183
 Frc consts  --      6.7529                 6.7708                 7.0725
 IR Inten    --      1.3750                 6.4630                 0.7752

 - Thermochemistry -
 -------------------
 Temperature   298.150 Kelvin.  Pressure   1.00000 Atm.
 Atom     1 has atomic number  6 and mass  12.00000

 Molecular mass:   246.08114 amu.
 Principal axes and moments of inertia in atomic units:
                           1         2         3
     Eigenvalues --  2623.415155453.701717250.32415
           X            0.99976  -0.02143   0.00349
           Y            0.02139   0.99971   0.01098
           Z           -0.00372  -0.01091   0.99993
 This molecule is an asymmetric top.
 Rotational symmetry number  1.
 Warning -- assumption of classical behavior for rotation
           may cause significant error
 Rotational temperatures (Kelvin)      0.03302     0.01588     0.01195
 Rotational constants (GHZ):           0.68794     0.33092     0.24892
    1 imaginary frequencies ignored.
 Zero-point vibrational energy     679498.0 (Joules/Mol)
                                  162.40393 (Kcal/Mol)
 Warning -- explicit consideration of  25 degrees of freedom as
           vibrations may cause significant error
 Vibrational temperatures:     75.82   104.70   119.47   193.00   230.10
          (Kelvin)            265.18   279.89   299.37   309.42   322.85
                              395.74   431.79   480.24   497.62   532.55
                              562.70   589.46   630.53   677.18   701.28
                              709.51   763.27   773.25   843.92   888.78
                              952.25  1036.41  1081.53  1091.32  1142.36
                             1152.76  1164.10  1207.81  1284.23  1325.72
                             1330.91  1348.99  1381.85  1400.55  1414.90
                             1458.43  1461.54  1503.42  1508.61  1520.79
                             1529.72  1544.67  1550.74  1620.89  1655.42
                             1672.00  1742.16  1804.46  1809.13  1844.27
                             1925.11  1932.09  1937.18  1984.65  2026.82
                             2034.66  2053.56  2058.64  2068.38  2078.16
                             2111.46  2137.05  2170.21  2186.30  2241.13
                             2315.17  2395.14  2411.16  2453.88  4395.81
                             4400.55  4522.11  4526.67  4567.48  4570.66
                             4578.83  4585.59  4614.19  4632.95  4633.89
                             4651.98  4656.34  4658.20  4713.91

 Zero-point correction=                           0.258807 (Hartree/Particle)
 Thermal correction to Energy=                    0.273880
 Thermal correction to Enthalpy=                  0.274824
 Thermal correction to Gibbs Free Energy=         0.217224
 Sum of electronic and zero-point Energies=          -1114.815685
 Sum of electronic and thermal Energies=             -1114.800612
 Sum of electronic and thermal Enthalpies=           -1114.799668
 Sum of electronic and thermal Free Energies=        -1114.857269

                     E (Thermal)             CV                S
                      KCal/Mol        Cal/Mol-Kelvin    Cal/Mol-Kelvin
 Total                  171.862             60.005            121.231
 Electronic               0.000              0.000              0.000
 Translational            0.889              2.981             42.402
 Rotational               0.889              2.981             33.006
 Vibrational            170.085             54.044             45.823
 Vibration     1          0.596              1.977              4.714
 Vibration     2          0.599              1.967              4.077
 Vibration     3          0.600              1.961              3.818
 Vibration     4          0.613              1.919              2.886
 Vibration     5          0.622              1.891              2.551
 Vibration     6          0.631              1.861              2.284
 Vibration     7          0.635              1.847              2.184
 Vibration     8          0.641              1.828              2.061
 Vibration     9          0.645              1.818              2.000
 Vibration    10          0.649              1.804              1.923
 Vibration    11          0.677              1.719              1.564
 Vibration    12          0.693              1.673              1.416
 Vibration    13          0.715              1.608              1.242
 Vibration    14          0.724              1.584              1.185
 Vibration    15          0.742              1.534              1.079
 Vibration    16          0.759              1.489              0.996
 Vibration    17          0.774              1.449              0.928
 Vibration    18          0.798              1.387              0.832
 Vibration    19          0.828              1.315              0.736
 Vibration    20          0.843              1.278              0.690
 Vibration    21          0.849              1.265              0.676
 Vibration    22          0.885              1.183              0.586
 Vibration    23          0.892              1.167              0.571
 Vibration    24          0.944              1.060              0.473
 Vibration    25          0.978              0.994              0.420

 Normal termination of Gaussian 09 at Wed Sep 16 18:35:40 2020.
