 Gaussian 09, Revision D.01,
 Gaussian 09:  ES64L-G09RevD.01 24-Apr-2013

 ----------------------------------------------------------------------
 # opt freq scrf=(cpcm,solvent=water) geom=connectivity def2svp m062x e
 mpiricaldispersion=gd3
 ----------------------------------------------------------------------

 -------------------
 Title Card Required
 -------------------
 Symbolic Z-matrix:
 Charge =  0 Multiplicity = 1

 SCF Done:  E(RM062X) =  -1115.12177438     A.U. after   13 cycles
 SCF Done:  E(RM062X) =  -1115.12177508     A.U. after    8 cycles
 SCF Done:  E(RM062X) =  -1115.12177513     A.U. after    8 cycles
 SCF Done:  E(RM062X) =  -1115.12177521     A.U. after    7 cycles
 SCF Done:  E(RM062X) =  -1115.12177531     A.U. after    7 cycles
 Optimization completed.
    -- Stationary point found.
 Normal termination of Gaussian 09 at Wed Sep  9 12:18:04 2020.

 -------------------------------------------------------------------
 #N Geom=AllCheck Guess=TCheck SCRF=Check GenChk RM062X/def2SVP Freq
 -------------------------------------------------------------------

 Structure from the checkpoint file:  "m062x_pr_claisen_PM6_toluene_water_gd3.chk"
 -------------------
 Title Card Required
 -------------------
 Charge =  0 Multiplicity = 1

                         Standard orientation:
 ---------------------------------------------------------------------
 Center     Atomic      Atomic             Coordinates (Angstroms)
 Number     Number       Type             X           Y           Z
 ---------------------------------------------------------------------
      1          6           0        4.371194   -0.329625    0.061425
      2          6           0        3.399267    0.666037   -0.004107
      3          6           0        2.041514    0.329757   -0.059038
      4          6           0        1.679181   -1.034647   -0.049180
      5          6           0        2.663748   -2.024307    0.018628
      6          6           0        4.009400   -1.678624    0.074715
      7          1           0        5.424214   -0.047294    0.103052
      8          1           0        3.693527    1.714838   -0.013892
      9          1           0        2.343463   -3.067004    0.025463
     10          1           0        4.775108   -2.453134    0.128859
     11          6           0        0.251460   -1.454419   -0.108388
     12          6           0        0.971759    1.340881   -0.127425
     13          6           0       -0.824223   -0.382951   -0.157787
     14          6           0       -0.327169    1.027376   -0.180241
     15          1           0       -1.074306    1.822210   -0.234367
     16          8           0       -0.064783   -2.625960   -0.108014
     17         17           0        1.450461    3.020043   -0.140809
     18          6           0       -4.118058   -0.021040    0.062691
     19          6           0       -3.074203    0.241926    0.863866
     20          1           0       -3.101389    1.162377    1.456135
     21          6           0       -5.299206    0.907079   -0.017059
     22          1           0       -6.226471    0.377836    0.254641
     23          1           0       -5.182105    1.772715    0.647889
     24          1           0       -5.434985    1.272034   -1.047634
     25          6           0       -4.204596   -1.237161   -0.820156
     26          1           0       -3.344512   -1.911273   -0.720718
     27          1           0       -5.119033   -1.808090   -0.593628
     28          1           0       -4.279505   -0.931920   -1.876324
     29          6           0       -1.842136   -0.613639    0.991816
     30          1           0       -1.335272   -0.407380    1.946314
     31          1           0       -2.094356   -1.683119    0.984854
     32          1           0       -1.371557   -0.565695   -1.101330
 ---------------------------------------------------------------------

 SCF Done:  E(RM062X) =  -1115.12177531     A.U. after    1 cycles

 The electronic state is 1-A.
 Alpha  occ. eigenvalues -- -102.64704 -19.63509 -10.65489 -10.62490 -10.59443
 Alpha  occ. eigenvalues --  -10.57951 -10.57894 -10.57774 -10.57603 -10.57493
 Alpha  occ. eigenvalues --  -10.57306 -10.57110 -10.56456 -10.56039 -10.54837
 Alpha  occ. eigenvalues --  -10.54654 -10.54623  -9.81706  -7.54407  -7.53731
 Alpha  occ. eigenvalues --   -7.53727  -1.16532  -1.00250  -0.96119  -0.93052
 Alpha  occ. eigenvalues --   -0.90090  -0.86368  -0.85610  -0.82192  -0.78276
 Alpha  occ. eigenvalues --   -0.77376  -0.72956  -0.71490  -0.69280  -0.66031
 Alpha  occ. eigenvalues --   -0.60997  -0.60023  -0.57966  -0.57548  -0.55347
 Alpha  occ. eigenvalues --   -0.53496  -0.52557  -0.52181  -0.51245  -0.51051
 Alpha  occ. eigenvalues --   -0.49934  -0.49329  -0.48399  -0.47226  -0.46522
 Alpha  occ. eigenvalues --   -0.45235  -0.44613  -0.43745  -0.43341  -0.43040
 Alpha  occ. eigenvalues --   -0.42166  -0.41526  -0.40700  -0.38975  -0.38128
 Alpha  occ. eigenvalues --   -0.35175  -0.33599  -0.32501  -0.29742  -0.28649
 Alpha virt. eigenvalues --   -0.04587  -0.01171   0.04739   0.06587   0.07422
 Alpha virt. eigenvalues --    0.08885   0.10193   0.11435   0.12509   0.13530
 Alpha virt. eigenvalues --    0.14962   0.15029   0.16206   0.17294   0.17531

 Mulliken charges:
               1
     1  C    0.000781
     2  C   -0.080758
     3  C    0.071656
     4  C   -0.055129
     5  C   -0.045179
     6  C   -0.009571
     7  H    0.050544
     8  H    0.033054
     9  H    0.036370
    10  H    0.048258
    11  C    0.135529
    12  C    0.068981
    13  C   -0.055221
    14  C   -0.072138
    15  H    0.041131
    16  O   -0.259762
    17  Cl  -0.105145
    18  C   -0.217968
    19  C   -0.123411
    20  H    0.024937
    21  C   -0.012693
    22  H    0.054668
    23  H    0.045877
    24  H    0.054888
    25  C   -0.011824
    26  H    0.042683
    27  H    0.058378
    28  H    0.060455
    29  C    0.023120
    30  H    0.048290
    31  H    0.060256
    32  H    0.088943
 Sum of Mulliken charges =   0.00000

 Dipole moment (field-independent basis, Debye):
    X=              0.1242    Y=              1.1352    Z=             -0.2954  Tot=              1.1796
 Quadrupole moment (field-independent basis, Debye-Ang):
   XX=            -84.6386   YY=           -114.9418   ZZ=           -109.2589
   XY=             -5.0202   XZ=              3.3243   YZ=              0.4631

  Exact polarizability: 317.754   0.921 238.846  18.567   4.127 133.839
 Approx polarizability: 272.058   9.212 230.601  16.440   3.298 137.225

                      1                      2                      3
                      A                      A                      A
 Frequencies --     14.2936                26.7674                50.1671
 Red. masses --      4.3343                 3.6656                 3.1847
 Frc consts  --      0.0005                 0.0015                 0.0047
 IR Inten    --      2.2419                 0.3307                 1.0201

                      4                      5                      6
                      A                      A                      A
 Frequencies --     83.1543               109.9033               117.6849
 Red. masses --      3.1012                 3.2368                 3.4214
 Frc consts  --      0.0126                 0.0230                 0.0279
 IR Inten    --      0.1140                 0.9383                 1.7090

                      7                      8                      9
                      A                      A                      A
 Frequencies --    132.1385               175.4797               191.6236
 Red. masses --      1.4786                 2.4183                 1.7106
 Frc consts  --      0.0152                 0.0439                 0.0370
 IR Inten    --      0.0962                 1.8804                 1.8520

                     10                     11                     12
                      A                      A                      A
 Frequencies --    216.0073               229.3908               292.7322
 Red. masses --      3.8121                 7.5236                 2.9916
 Frc consts  --      0.1048                 0.2333                 0.1510
 IR Inten    --      4.0080                 1.4504                 0.8540

                     13                     14                     15
                      A                      A                      A
 Frequencies --    315.2162               336.1797               369.1581
 Red. masses --      2.8827                 7.0605                 8.4462
 Frc consts  --      0.1688                 0.4701                 0.6782
 IR Inten    --      4.6923                18.7604                 0.7368

                     16                     17                     18
                      A                      A                      A
 Frequencies --    393.0785               406.6293               427.5932
 Red. masses --      2.5723                 3.8634                 2.9769
 Frc consts  --      0.2342                 0.3764                 0.3207
 IR Inten    --      1.0167                 6.1921                 0.6683

                     19                     20                     21
                      A                      A                      A
 Frequencies --    452.9925               473.6061               489.7422
 Red. masses --      3.0913                 5.3070                 2.5504
 Frc consts  --      0.3737                 0.7013                 0.3604
 IR Inten    --      9.4093                 1.0396                 0.1881

                     22                     23                     24
                      A                      A                      A
 Frequencies --    534.6981               555.9514               609.8180
 Red. masses --      5.0790                 3.2990                 3.4848
 Frc consts  --      0.8556                 0.6008                 0.7635
 IR Inten    --     15.2624                 9.4233                 4.2490

                     25                     26                     27
                      A                      A                      A
 Frequencies --    631.3226               641.0066               709.7874
 Red. masses --      3.7184                 5.1518                 4.1324
 Frc consts  --      0.8732                 1.2472                 1.2266
 IR Inten    --     11.5074                14.0084                17.8040

                     28                     29                     30
                      A                      A                      A
 Frequencies --    724.9556               781.7744               793.9438
 Red. masses --      5.3422                 3.0801                 2.7329
 Frc consts  --      1.6542                 1.1091                 1.0150
 IR Inten    --     12.3018                14.3056                 4.1188

                     31                     32                     33
                      A                      A                      A
 Frequencies --    801.2664               841.5934               866.2805
 Red. masses --      1.5944                 2.8410                 1.6814
 Frc consts  --      0.6031                 1.1856                 0.7434
 IR Inten    --     56.8790                 5.2082                34.5895

                     34                     35                     36
                      A                      A                      A
 Frequencies --    884.8427               915.0009               932.3538
 Red. masses --      1.3525                 2.1742                 1.4879
 Frc consts  --      0.6239                 1.0725                 0.7621
 IR Inten    --     22.6354                30.4246                 2.6489

                     37                     38                     39
                      A                      A                      A
 Frequencies --    950.2738               960.8429               987.1280
 Red. masses --      1.3633                 5.0662                 2.0051
 Frc consts  --      0.7253                 2.7558                 1.1512
 IR Inten    --      0.4057                74.1427                15.3234

                     40                     41                     42
                      A                      A                      A
 Frequencies --   1001.4336              1021.6616              1044.1732
 Red. masses --      1.3095                 1.3903                 2.2262
 Frc consts  --      0.7738                 0.8550                 1.4301
 IR Inten    --      8.1864                 2.5636                 6.3405

                     43                     44                     45
                      A                      A                      A
 Frequencies --   1054.2187              1070.4646              1075.7377
 Red. masses --      1.3795                 2.1188                 2.1885
 Frc consts  --      0.9033                 1.4305                 1.4922
 IR Inten    --      0.7424                35.6814                12.7288

                     46                     47                     48
                      A                      A                      A
 Frequencies --   1089.6275              1112.9550              1130.0606
 Red. masses --      1.7520                 1.9216                 1.5525
 Frc consts  --      1.2256                 1.4024                 1.1681
 IR Inten    --      2.6898                36.1489                11.8262

                     49                     50                     51
                      A                      A                      A
 Frequencies --   1139.3225              1156.8676              1159.3974
 Red. masses --      1.5803                 1.2033                 1.3199
 Frc consts  --      1.2086                 0.9488                 1.0454
 IR Inten    --      1.6353                 8.0581                 9.9071

                     52                     53                     54
                      A                      A                      A
 Frequencies --   1205.8785              1243.6386              1255.4496
 Red. masses --      1.6752                 1.5281                 1.6484
 Frc consts  --      1.4352                 1.3925                 1.5308
 IR Inten    --      9.0957                 4.3550                 1.0344

                     55                     56                     57
                      A                      A                      A
 Frequencies --   1261.0585              1308.6362              1324.1864
 Red. masses --      1.7468                 2.0958                 1.3577
 Frc consts  --      1.6366                 2.1146                 1.4027
 IR Inten    --     28.6996               124.5889                 0.1345

                     58                     59                     60
                      A                      A                      A
 Frequencies --   1343.9520              1364.5018              1367.7541
 Red. masses --      1.4515                 2.2936                 4.4016
 Frc consts  --      1.5446                 2.5160                 4.8515
 IR Inten    --     45.4560               102.1166                 3.3894

                     61                     62                     63
                      A                      A                      A
 Frequencies --   1381.4605              1388.0587              1410.2219
 Red. masses --      2.9195                 1.2884                 1.7973
 Frc consts  --      3.2827                 1.4626                 2.1059
 IR Inten    --     57.3752                 2.1274                16.1971

                     64                     65                     66
                      A                      A                      A
 Frequencies --   1434.1181              1442.6041              1452.0965
 Red. masses --      1.0456                 1.0690                 1.0710
 Frc consts  --      1.2670                 1.3108                 1.3305
 IR Inten    --      0.6204                11.2017                20.8662

                     67                     68                     69
                      A                      A                      A
 Frequencies --   1459.7003              1471.8432              1499.4764
 Red. masses --      1.0889                 1.0969                 3.0999
 Frc consts  --      1.3670                 1.4001                 4.1065
 IR Inten    --     17.5105                 6.7013                43.1547

                     70                     71                     72
                      A                      A                      A
 Frequencies --   1529.5342              1660.9748              1692.4707
 Red. masses --      3.3367                 7.3433                 7.0336
 Frc consts  --      4.5992                11.9362                11.8705
 IR Inten    --     12.9076                 3.8604               102.1412

                     73                     74                     75
                      A                      A                      A
 Frequencies --   1741.0561              1776.9624              1828.6098
 Red. masses --      9.1358                 7.5437                12.7995
 Frc consts  --     16.3163                14.0343                25.2164
 IR Inten    --     42.3902                20.1150               391.3859

                     76                     77                     78
                      A                      A                      A
 Frequencies --   3040.2987              3041.0368              3046.0545
 Red. masses --      1.0416                 1.0774                 1.0404
 Frc consts  --      5.6724                 5.8704                 5.6877
 IR Inten    --     32.5352                 7.3640                33.4822

                     79                     80                     81
                      A                      A                      A
 Frequencies --   3079.6105              3115.6321              3117.5527
 Red. masses --      1.0635                 1.1020                 1.1012
 Frc consts  --      5.9425                 6.3029                 6.3059
 IR Inten    --     24.8547                12.9612                22.4140

                     82                     83                     84
                      A                      A                      A
 Frequencies --   3141.1651              3154.6462              3162.4520
 Red. masses --      1.1040                 1.1047                 1.1020
 Frc consts  --      6.4180                 6.4775                 6.4934
 IR Inten    --     12.5790                19.6350                16.9079

                     85                     86                     87
                      A                      A                      A
 Frequencies --   3172.6927              3208.4162              3214.7559
 Red. masses --      1.0916                 1.0935                 1.0885
 Frc consts  --      6.4742                 6.6321                 6.6277
 IR Inten    --     26.3055                 3.8310                 1.9296

                     88                     89                     90
                      A                      A                      A
 Frequencies --   3226.1458              3234.6122              3245.4379
 Red. masses --      1.0937                 1.0979                 1.0954
 Frc consts  --      6.7068                 6.7682                 6.7981
 IR Inten    --      3.1856                 6.3321                 1.3807

 - Thermochemistry -
 -------------------
 Temperature   298.150 Kelvin.  Pressure   1.00000 Atm.
 Atom     1 has atomic number  6 and mass  12.00000

 Molecular mass:   246.08114 amu.
 Principal axes and moments of inertia in atomic units:
                           1         2         3
     Eigenvalues --  2542.523627205.865249425.70643
           X            0.99992  -0.01211   0.00417
           Y            0.01209   0.99991   0.00554
           Z           -0.00424  -0.00549   0.99998
 This molecule is an asymmetric top.
 Rotational symmetry number  1.
 Warning -- assumption of classical behavior for rotation
           may cause significant error
 Rotational temperatures (Kelvin)      0.03407     0.01202     0.00919
 Rotational constants (GHZ):           0.70982     0.25045     0.19147
 Zero-point vibrational energy     685023.9 (Joules/Mol)
                                  163.72464 (Kcal/Mol)
 Warning -- explicit consideration of  24 degrees of freedom as
           vibrations may cause significant error
 Vibrational temperatures:     20.57    38.51    72.18   119.64   158.13
          (Kelvin)            169.32   190.12   252.48   275.70   310.79
                              330.04   421.18   453.53   483.69   531.14
                              565.55   585.05   615.21   651.75   681.41
                              704.63   769.31   799.89   877.39   908.33
                              922.26  1021.22  1043.05  1124.80  1142.31
                             1152.84  1210.86  1246.38  1273.09  1316.48
                             1341.45  1367.23  1382.44  1420.26  1440.84
                             1469.94  1502.33  1516.78  1540.16  1547.74
                             1567.73  1601.29  1625.90  1639.23  1664.47
                             1668.11  1734.99  1789.32  1806.31  1814.38
                             1882.83  1905.21  1933.64  1963.21  1967.89
                             1987.61  1997.10  2028.99  2063.37  2075.58
                             2089.24  2100.18  2117.65  2157.41  2200.66
                             2389.77  2435.08  2504.99  2556.65  2630.96
                             4374.31  4375.37  4382.59  4430.87  4482.69
                             4485.46  4519.43  4538.83  4550.06  4564.79
                             4616.19  4625.31  4641.70  4653.88  4669.46

 Zero-point correction=                           0.260912 (Hartree/Particle)
 Thermal correction to Energy=                    0.276832
 Thermal correction to Enthalpy=                  0.277776
 Thermal correction to Gibbs Free Energy=         0.215243
 Sum of electronic and zero-point Energies=          -1114.860863
 Sum of electronic and thermal Energies=             -1114.844943
 Sum of electronic and thermal Enthalpies=           -1114.843999
 Sum of electronic and thermal Free Energies=        -1114.906532

                     E (Thermal)             CV                S
                      KCal/Mol        Cal/Mol-Kelvin    Cal/Mol-Kelvin
 Total                  173.715             60.366            131.611
 Electronic               0.000              0.000              0.000
 Translational            0.889              2.981             42.402
 Rotational               0.889              2.981             33.512
 Vibrational            171.937             54.404             55.697
 Vibration     1          0.593              1.986              7.301
 Vibration     2          0.593              1.984              6.056
 Vibration     3          0.595              1.978              4.811
 Vibration     4          0.600              1.961              3.815
 Vibration     5          0.606              1.941              3.271
 Vibration     6          0.608              1.935              3.138
 Vibration     7          0.612              1.921              2.915
 Vibration     8          0.627              1.873              2.376
 Vibration     9          0.634              1.851              2.212
 Vibration    10          0.645              1.817              1.992
 Vibration    11          0.652              1.796              1.884
 Vibration    12          0.688              1.687              1.458
 Vibration    13          0.703              1.645              1.335
 Vibration    14          0.717              1.603              1.230
 Vibration    15          0.741              1.536              1.083
 Vibration    16          0.760              1.485              0.988
 Vibration    17          0.771              1.456              0.939
 Vibration    18          0.789              1.410              0.867
 Vibration    19          0.812              1.354              0.787
 Vibration    20          0.830              1.309              0.728
 Vibration    21          0.846              1.273              0.684
 Vibration    22          0.890              1.173              0.577
 Vibration    23          0.911              1.127              0.532
 Vibration    24          0.969              1.011              0.433

 Normal termination of Gaussian 09 at Wed Sep  9 12:38:44 2020.
