 Gaussian 09, Revision D.01,
 Gaussian 09:  ES64L-G09RevD.01 24-Apr-2013

 ----------------------------------------------------------------------
 # opt freq scrf=(cpcm,solvent=water) geom=connectivity def2svp m062x e
 mpiricaldispersion=gd3
 ----------------------------------------------------------------------

 -------------------
 Title Card Required
 -------------------
 Symbolic Z-matrix:
 Charge =  0 Multiplicity = 1

 SCF Done:  E(RM062X) =  -1115.12328873     A.U. after   14 cycles
 SCF Done:  E(RM062X) =  -1115.12328870     A.U. after    6 cycles
 SCF Done:  E(RM062X) =  -1115.12328815     A.U. after    7 cycles
 SCF Done:  E(RM062X) =  -1115.12328864     A.U. after    7 cycles
 Optimization completed.
    -- Stationary point found.

 1\1\GINC-D8S0B4\FOpt\RM062X\def2SVP\C15H15Cl1O1\CHMKSH\09-Sep-2020\0\\
 # opt freq scrf=(cpcm,solvent=water) geom=connectivity def2svp m062x e
 mpiricaldispersion=gd3\\Title Card Required\\0,1\C,-2.8362163334,2.496
 9483752,0.1542259945\C,-3.0158181007,1.1363227942,0.0709253603\C,-1.90
 02635403,0.2584080418,0.0129754982\C,-0.5870348696,0.813770543,0.04224
 80779\C,-0.4339183377,2.2231251916,0.1252391771\C,-1.5331413581,3.0476
 100815,0.1810408815\H,-3.7043869154,3.1561384285,0.1975951408\H,-4.019
 3043542,0.712009206,0.048553059\H,0.5750012907,2.6330394814,0.14357077

 Normal termination of Gaussian 09 at Wed Sep  9 12:08:46 2020.

 -------------------------------------------------------------------
 #N Geom=AllCheck Guess=TCheck SCRF=Check GenChk RM062X/def2SVP Freq
 -------------------------------------------------------------------

 Structure from the checkpoint file:  "m062x_sm_claisen_PM6_toluene_water_gd3.chk"
 -------------------
 Title Card Required
 -------------------
 Charge =  0 Multiplicity = 1

                         Standard orientation:
 ---------------------------------------------------------------------
 Center     Atomic      Atomic             Coordinates (Angstroms)
 Number     Number       Type             X           Y           Z
 ---------------------------------------------------------------------
      1          6           0       -2.836090    2.497148    0.154251
      2          6           0       -3.015774    1.136534    0.070950
      3          6           0       -1.900273    0.258551    0.013001
      4          6           0       -0.587011    0.813834    0.042273
      5          6           0       -0.433809    2.223180    0.125264
      6          6           0       -1.532982    3.047731    0.181066
      7          1           0       -3.704221    3.156391    0.197620
      8          1           0       -4.019286    0.712281    0.048578
      9          1           0        0.575135    2.633033    0.143596
     10          1           0       -1.401728    4.128772    0.244421
     11          6           0        0.560422   -0.051419   -0.010478
     12          6           0       -2.026172   -1.160113   -0.075899
     13          6           0        0.382239   -1.417048   -0.083921
     14          1           0        1.233418   -2.092255   -0.091602
     15          6           0       -0.920850   -1.967491   -0.123668
     16          1           0       -1.043895   -3.048944   -0.184605
     17          8           0        1.744932    0.591960    0.051996
     18         17           0       -3.614306   -1.886826   -0.117892
     19          6           0        3.003613    0.013488   -0.327486
     20          6           0        3.482934   -0.997781    0.693187
     21          1           0        4.327992   -1.613586    0.366801
     22          6           0        2.949920   -0.571267   -1.740736
     23          1           0        3.970752   -0.821832   -2.059936
     24          1           0        2.340950   -1.479539   -1.812899
     25          1           0        2.545462    0.181671   -2.431928
     26          6           0        3.961356    1.206441   -0.311379
     27          1           0        3.931078    1.687872    0.675104
     28          1           0        4.988056    0.873086   -0.512502
     29          1           0        3.664406    1.934875   -1.079329
     30          6           0        2.996493   -1.124014    1.925609
     31          1           0        3.415624   -1.845984    2.628669
     32          1           0        2.155903   -0.512147    2.263997
 ---------------------------------------------------------------------

 SCF Done:  E(RM062X) =  -1115.12328864     A.U. after    1 cycles

 The electronic state is 1-A.
 Alpha  occ. eigenvalues -- -102.64337 -19.66897 -10.63151 -10.62775 -10.61439
 Alpha  occ. eigenvalues --  -10.58265 -10.57662 -10.57394 -10.56668 -10.56587
 Alpha  occ. eigenvalues --  -10.56553 -10.56414 -10.56329 -10.56178 -10.55390
 Alpha  occ. eigenvalues --  -10.55107 -10.54957  -9.81328  -7.54028  -7.53358
 Alpha  occ. eigenvalues --   -7.53356  -1.18722  -1.00025  -0.95583  -0.92814
 Alpha  occ. eigenvalues --   -0.90594  -0.85288  -0.84123  -0.83715  -0.80340
 Alpha  occ. eigenvalues --   -0.77631  -0.72403  -0.71128  -0.69613  -0.67594
 Alpha  occ. eigenvalues --   -0.63494  -0.60269  -0.58855  -0.57418  -0.56377
 Alpha  occ. eigenvalues --   -0.54769  -0.54009  -0.51550  -0.50614  -0.50235
 Alpha  occ. eigenvalues --   -0.50113  -0.48871  -0.48500  -0.46905  -0.46293
 Alpha  occ. eigenvalues --   -0.45340  -0.44965  -0.44497  -0.43490  -0.42630
 Alpha  occ. eigenvalues --   -0.41502  -0.40937  -0.40512  -0.38417  -0.37802
 Alpha  occ. eigenvalues --   -0.36837  -0.32987  -0.32512  -0.30996  -0.26044
 Alpha virt. eigenvalues --   -0.02050   0.00288   0.04148   0.05907   0.09034
 Alpha virt. eigenvalues --    0.09512   0.11650   0.12308   0.12730   0.13632
 Alpha virt. eigenvalues --    0.14255   0.15387   0.15979   0.16750   0.16905

 Mulliken charges:
               1
     1  C   -0.015992
     2  C   -0.067104
     3  C    0.036719
     4  C   -0.040810
     5  C   -0.039265
     6  C   -0.018809
     7  H    0.041444
     8  H    0.024400
     9  H    0.028995
    10  H    0.040573
    11  C    0.252209
    12  C    0.027866
    13  C   -0.133691
    14  H    0.034939
    15  C   -0.017949
    16  H    0.031887
    17  O   -0.359760
    18  Cl  -0.115524
    19  C   -0.075608
    20  C   -0.079773
    21  H    0.052016
    22  C   -0.019121
    23  H    0.062780
    24  H    0.056802
    25  H    0.059030
    26  C    0.023986
    27  H    0.046251
    28  H    0.052931
    29  H    0.054334
    30  C   -0.075045
    31  H    0.067074
    32  H    0.064215
 Sum of Mulliken charges =   0.00000

 Dipole moment (field-independent basis, Debye):
    X=              3.8350    Y=              0.2464    Z=             -0.7411  Tot=              3.9137
 Quadrupole moment (field-independent basis, Debye-Ang):
   XX=            -97.5347   YY=            -98.7737   ZZ=           -109.7832
   XY=             -8.5062   XZ=             -3.5322   YZ=             -0.0196

  Exact polarizability: 283.156 -10.881 273.777  -8.724   2.823 145.894
 Approx polarizability: 257.135  -7.540 260.290  -8.082   4.582 144.832

                      1                      2                      3
                      A                      A                      A
 Frequencies --     39.2907                55.4816                92.4486
 Red. masses --      4.2194                 4.2312                 2.2405
 Frc consts  --      0.0038                 0.0077                 0.0113
 IR Inten    --      1.0240                 0.1838                 0.2889

                      4                      5                      6
                      A                      A                      A
 Frequencies --    116.5452               125.1357               152.4612
 Red. masses --      4.4448                 4.2364                 3.9708
 Frc consts  --      0.0356                 0.0391                 0.0544
 IR Inten    --      0.6179                 0.0050                 1.2205

                      7                      8                      9
                      A                      A                      A
 Frequencies --    185.7969               196.5585               217.0135
 Red. masses --      3.8599                 4.2211                 1.1261
 Frc consts  --      0.0785                 0.0961                 0.0312
 IR Inten    --      2.6044                 1.5299                 0.4260

                     10                     11                     12
                      A                      A                      A
 Frequencies --    228.9849               263.1876               279.3680
 Red. masses --      6.5975                 1.3538                 1.9334
 Frc consts  --      0.2038                 0.0553                 0.0889
 IR Inten    --      1.7151                 0.3790                 1.3089

                     13                     14                     15
                      A                      A                      A
 Frequencies --    323.1115               334.8964               362.9803
 Red. masses --      2.3420                 3.8061                 3.4858
 Frc consts  --      0.1441                 0.2515                 0.2706
 IR Inten    --      1.1822                 2.1276                 2.0441

                     16                     17                     18
                      A                      A                      A
 Frequencies --    384.7595               418.4079               427.2585
 Red. masses --      3.3132                 4.2844                 3.2711
 Frc consts  --      0.2890                 0.4419                 0.3518
 IR Inten    --      0.8921                 3.5474                 7.0497

                     19                     20                     21
                      A                      A                      A
 Frequencies --    452.0484               487.5082               495.0869
 Red. masses --      3.1377                 3.4270                 4.8334
 Frc consts  --      0.3778                 0.4799                 0.6980
 IR Inten    --      0.2896                 0.2879                 3.6624

                     22                     23                     24
                      A                      A                      A
 Frequencies --    532.4502               562.2791               604.5013
 Red. masses --      5.8247                 4.0381                 4.1023
 Frc consts  --      0.9729                 0.7522                 0.8832
 IR Inten    --      5.8396                 2.5284                 4.2078

                     25                     26                     27
                      A                      A                      A
 Frequencies --    614.1036               662.7419               671.8621
 Red. masses --      3.1957                 4.0116                 3.9757
 Frc consts  --      0.7101                 1.0381                 1.0574
 IR Inten    --      5.1477                15.9306                16.0715

                     28                     29                     30
                      A                      A                      A
 Frequencies --    699.9196               754.9298               778.0888
 Red. masses --      2.0467                 5.1128                 3.2308
 Frc consts  --      0.5908                 1.7168                 1.1524
 IR Inten    --     23.5330                23.8767                10.0104

                     31                     32                     33
                      A                      A                      A
 Frequencies --    795.7932               806.1401               813.9939
 Red. masses --      1.5154                 4.1433                 2.9525
 Frc consts  --      0.5654                 1.5864                 1.1526
 IR Inten    --     70.2105                 3.1674                 6.7139

                     34                     35                     36
                      A                      A                      A
 Frequencies --    873.2550               906.9996               915.6220
 Red. masses --      1.3528                 1.7243                 2.3055
 Frc consts  --      0.6078                 0.8358                 1.1388
 IR Inten    --     58.9969                 1.8236                33.8007

                     37                     38                     39
                      A                      A                      A
 Frequencies --    939.3714               958.2572               967.2927
 Red. masses --      1.4120                 2.3833                 1.2968
 Frc consts  --      0.7341                 1.2894                 0.7149
 IR Inten    --      1.2275                26.3416                73.2841

                     40                     41                     42
                      A                      A                      A
 Frequencies --    980.9235               984.2325              1007.3904
 Red. masses --      2.1196                 1.7856                 1.2876
 Frc consts  --      1.2017                 1.0191                 0.7699
 IR Inten    --      9.5656                10.6966                 2.2748

                     43                     44                     45
                      A                      A                      A
 Frequencies --   1013.7148              1031.9908              1038.9104
 Red. masses --      1.3548                 1.2987                 1.2439
 Frc consts  --      0.8203                 0.8149                 0.7910
 IR Inten    --      0.6207                14.6159                21.5840

                     46                     47                     48
                      A                      A                      A
 Frequencies --   1047.0402              1062.1790              1098.4710
 Red. masses --      1.3450                 2.2291                 2.1267
 Frc consts  --      0.8687                 1.4818                 1.5120
 IR Inten    --      0.0492                29.8678                69.4245

                     49                     50                     51
                      A                      A                      A
 Frequencies --   1156.0502              1159.6855              1188.1437
 Red. masses --      1.5101                 1.1633                 1.5941
 Frc consts  --      1.1891                 0.9218                 1.3259
 IR Inten    --      8.3094                 7.7679                 3.6601

                     52                     53                     54
                      A                      A                      A
 Frequencies --   1213.0802              1220.2040              1229.3724
 Red. masses --      2.6424                 1.8928                 2.9209
 Frc consts  --      2.2910                 1.6605                 2.6010
 IR Inten    --    190.3350                27.0997                54.8359

                     55                     56                     57
                      A                      A                      A
 Frequencies --   1262.8407              1266.7348              1299.2964
 Red. masses --      2.3422                 1.7356                 2.6936
 Frc consts  --      2.2007                 1.6408                 2.6791
 IR Inten    --    191.5003                17.3634               187.1792

                     58                     59                     60
                      A                      A                      A
 Frequencies --   1305.6681              1373.3458              1378.7961
 Red. masses --      1.4294                 1.4639                 3.3012
 Frc consts  --      1.4358                 1.6268                 3.6976
 IR Inten    --      3.7486                13.8035                24.6746

                     61                     62                     63
                      A                      A                      A
 Frequencies --   1390.5947              1415.3543              1419.2627
 Red. masses --      1.2764                 2.8096                 1.1903
 Frc consts  --      1.4542                 3.3160                 1.4127
 IR Inten    --     30.7179               306.4016                18.3798

                     64                     65                     66
                      A                      A                      A
 Frequencies --   1439.9504              1442.5817              1445.3435
 Red. masses --      1.1016                 5.4466                 1.0526
 Frc consts  --      1.3458                 6.6781                 1.2956
 IR Inten    --      3.1434                63.5928                 3.2960

                     67                     68                     69
                      A                      A                      A
 Frequencies --   1460.9840              1468.4579              1472.7955
 Red. masses --      1.1018                 2.6997                 1.0915
 Frc consts  --      1.3856                 3.4300                 1.3949
 IR Inten    --     14.2553                37.6846                 8.1994

                     70                     71                     72
                      A                      A                      A
 Frequencies --   1505.8620              1576.2105              1667.0924
 Red. masses --      3.3125                 4.8345                 8.2238
 Frc consts  --      4.4257                 7.0766                13.4660
 IR Inten    --    143.9715                52.9057                71.7164

                     73                     74                     75
                      A                      A                      A
 Frequencies --   1680.6703              1717.6136              1748.6819
 Red. masses --      6.5378                 7.2533                 5.4943
 Frc consts  --     10.8805                12.6077                 9.8989
 IR Inten    --    116.7132                12.0398                 4.2679

                     76                     77                     78
                      A                      A                      A
 Frequencies --   3056.5627              3072.8687              3156.5150
 Red. masses --      1.0353                 1.0377                 1.1058
 Frc consts  --      5.6988                 5.7734                 6.4916
 IR Inten    --     17.2838                14.2783                16.2675

                     79                     80                     81
                      A                      A                      A
 Frequencies --   3162.5359              3163.7368              3168.5961
 Red. masses --      1.0638                 1.1012                 1.1049
 Frc consts  --      6.2686                 6.4940                 6.5358
 IR Inten    --      4.0480                10.7489                21.5906

                     82                     83                     84
                      A                      A                      A
 Frequencies --   3179.3293              3182.8123              3211.5000
 Red. masses --      1.0959                 1.1037                 1.0885
 Frc consts  --      6.5268                 6.5873                 6.6146
 IR Inten    --      8.1998                15.4588                 5.7346

                     85                     86                     87
                      A                      A                      A
 Frequencies --   3222.6772              3225.9077              3236.0374
 Red. masses --      1.0927                 1.0939                 1.0965
 Frc consts  --      6.6864                 6.7070                 6.7654
 IR Inten    --      5.8420                 2.2161                 3.4114

                     88                     89                     90
                      A                      A                      A
 Frequencies --   3241.7511              3269.4203              3270.5642
 Red. masses --      1.0966                 1.1176                 1.0937
 Frc consts  --      6.7897                 7.0387                 6.8925
 IR Inten    --      5.8637                 5.6432                 4.9686

 - Thermochemistry -
 -------------------
 Temperature   298.150 Kelvin.  Pressure   1.00000 Atm.
 Atom     1 has atomic number  6 and mass  12.00000

 Molecular mass:   246.08114 amu.
 Principal axes and moments of inertia in atomic units:
                           1         2         3
     Eigenvalues --  2564.885936347.501218064.54690
           X            0.99967  -0.02518  -0.00558
           Y            0.02516   0.99968  -0.00290
           Z            0.00565   0.00276   0.99998
 This molecule is an asymmetric top.
 Rotational symmetry number  1.
 Warning -- assumption of classical behavior for rotation
           may cause significant error
 Rotational temperatures (Kelvin)      0.03377     0.01365     0.01074
 Rotational constants (GHZ):           0.70363     0.28432     0.22379
 Zero-point vibrational energy     684780.0 (Joules/Mol)
                                  163.66634 (Kcal/Mol)
 Warning -- explicit consideration of  25 degrees of freedom as
           vibrations may cause significant error
 Vibrational temperatures:     56.53    79.83   133.01   167.68   180.04
          (Kelvin)            219.36   267.32   282.80   312.23   329.46
                              378.67   401.95   464.88   481.84   522.25
                              553.58   601.99   614.73   650.40   701.41
                              712.32   766.08   808.99   869.74   883.56
                              953.54   966.66  1007.03  1086.17  1119.49
                             1144.97  1159.85  1171.15  1256.42  1304.97
                             1317.37  1351.54  1378.72  1391.72  1411.33
                             1416.09  1449.41  1458.51  1484.80  1494.76
                             1506.46  1528.24  1580.45  1663.30  1668.53
                             1709.47  1745.35  1755.60  1768.79  1816.94
                             1822.55  1869.40  1878.56  1975.94  1983.78
                             2000.75  2036.38  2042.00  2071.76  2075.55
                             2079.52  2102.03  2112.78  2119.02  2166.60
                             2267.81  2398.57  2418.11  2471.26  2515.96
                             4397.71  4421.17  4541.52  4550.18  4551.91
                             4558.90  4574.34  4579.35  4620.63  4636.71
                             4641.36  4655.93  4664.15  4703.96  4705.61

 Zero-point correction=                           0.260819 (Hartree/Particle)
 Thermal correction to Energy=                    0.276270
 Thermal correction to Enthalpy=                  0.277214
 Thermal correction to Gibbs Free Energy=         0.218208
 Sum of electronic and zero-point Energies=          -1114.862470
 Sum of electronic and thermal Energies=             -1114.847018
 Sum of electronic and thermal Enthalpies=           -1114.846074
 Sum of electronic and thermal Free Energies=        -1114.905081

                     E (Thermal)             CV                S
                      KCal/Mol        Cal/Mol-Kelvin    Cal/Mol-Kelvin
 Total                  173.362             60.847            124.189
 Electronic               0.000              0.000              0.000
 Translational            0.889              2.981             42.402
 Rotational               0.889              2.981             33.240
 Vibrational            171.585             54.886             48.547
 Vibration     1          0.594              1.981              5.295
 Vibration     2          0.596              1.975              4.612
 Vibration     3          0.602              1.955              3.608
 Vibration     4          0.608              1.936              3.157
 Vibration     5          0.610              1.928              3.019
 Vibration     6          0.619              1.900              2.641
 Vibration     7          0.632              1.859              2.269
 Vibration     8          0.636              1.845              2.165
 Vibration     9          0.646              1.815              1.984
 Vibration    10          0.652              1.797              1.887
 Vibration    11          0.670              1.740              1.641
 Vibration    12          0.680              1.712              1.538
 Vibration    13          0.708              1.629              1.294
 Vibration    14          0.716              1.606              1.236
 Vibration    15          0.737              1.548              1.109
 Vibration    16          0.754              1.503              1.020
 Vibration    17          0.781              1.430              0.897
 Vibration    18          0.789              1.411              0.868
 Vibration    19          0.811              1.356              0.790
 Vibration    20          0.843              1.278              0.690
 Vibration    21          0.851              1.261              0.671
 Vibration    22          0.887              1.178              0.582
 Vibration    23          0.918              1.113              0.519
 Vibration    24          0.963              1.022              0.442
 Vibration    25          0.974              1.002              0.426

 Optimization completed.
    -- Stationary point found.

 1\1\GINC-D8S0B4\Freq\RM062X\def2SVP\C15H15Cl1O1\CHMKSH\09-Sep-2020\0\\
 #N Geom=AllCheck Guess=TCheck SCRF=Check GenChk RM062X/def2SVP Freq\\T
 itle Card Required\\0,1\C,-2.8362163334,2.4969483752,0.1542259945\C,-3
 .0158181007,1.1363227942,0.0709253603\C,-1.9002635403,0.2584080418,0.0
 129754982\C,-0.5870348696,0.813770543,0.0422480779\C,-0.4339183377,2.2
 231251916,0.1252391771\C,-1.5331413581,3.0476100815,0.1810408815\H,-3.
 7043869154,3.1561384285,0.1975951408\H,-4.0193043542,0.712009206,0.048
 553059\H,0.5750012907,2.6330394814,0.1435707718\H,-1.4019524953,4.1286

 Normal termination of Gaussian 09 at Wed Sep  9 12:31:31 2020.
